<?xml version="1.0" encoding="UTF-8"?>

<!-- generated on 2026-01-19 09:11:48 by Eclipse SUMO sumo Version 1.24.0
<sumoConfiguration xmlns:xsi="http://www.w3.org/2001/XMLSchema-instance" xsi:noNamespaceSchemaLocation="http://sumo.dlr.de/xsd/sumoConfiguration.xsd">

    <input>
        <net-file value="Scenario/4nodes/env/4nodes.net.xml"/>
        <route-files value="Scenario/4nodes/env/../routes/vehicle.rou.xml"/>
        <additional-files value="Scenario/4nodes/env/../add/tls.add.xml,Scenario/4nodes/env/ ../add/e2.add.xml"/>
    </input>

    <output>
        <netstate-dump value="Scenario/4nodes/env/../output/e2.netstate.xml"/>
        <netstate-dump.precision value="2"/>
        <summary-output value="Scenario/4nodes/env/../output/e2_summary.output.xml"/>
        <tripinfo-output value="/home/hoanganh04/Projects/CoLight/deploy_4nodes.tripinfo.xml"/>
        <tripinfo-output.write-unfinished value="true"/>
    </output>

    <time>
        <begin value="0"/>
        <end value="60000"/>
        <step-length value="1.0"/>
    </time>

    <processing>
        <lateral-resolution value="0.2"/>
        <time-to-teleport value="-1"/>
        <waiting-time-memory value="10000"/>
        <max-depart-delay value="100000"/>
    </processing>

    <report>
        <no-warnings value="true"/>
        <no-step-log value="true"/>
    </report>

    <emissions>
        <device.emissions.probability value="1.0"/>
    </emissions>

    <traci_server>
        <remote-port value="35861"/>
    </traci_server>

    <random_number>
        <random value="true"/>
    </random_number>

</sumoConfiguration>
-->

<tripinfos xmlns:xsi="http://www.w3.org/2001/XMLSchema-instance" xsi:noNamespaceSchemaLocation="http://sumo.dlr.de/xsd/tripinfo_file.xsd">
    <tripinfo id="-E5__0__car.0" depart="5.00" departLane="-E5_1" departPos="4.60" departPosLat="0.00" departSpeed="0.00" departDelay="0.16" arrival="41.00" arrivalLane="E4_1" arrivalPos="143.61" arrivalPosLat="0.00" arrivalSpeed="10.48" duration="36.00" routeLength="318.37" waitingTime="0.00" waitingCount="0" stopTime="0.00" timeLoss="6.53" rerouteNo="0" devices="tripinfo_-E5__0__car.0 emissions_-E5__0__car.0" vType="car" speedFactor="1.02" vaporized="">
        <emissions CO_abs="285.40" CO2_abs="82442.96" HC_abs="1.90" PMx_abs="7.01" NOx_abs="26.85" fuel_abs="26726.85" electricity_abs="0.00"/>
    </tripinfo>
    <tripinfo id="E0__0__motorbike.0" depart="4.00" departLane="E0_3" departPos="2.10" departPosLat="0.00" departSpeed="0.00" departDelay="0.42" arrival="42.00" arrivalLane="E1_2" arrivalPos="164.31" arrivalPosLat="0.00" arrivalSpeed="9.54" duration="38.00" routeLength="302.09" waitingTime="0.00" waitingCount="0" stopTime="0.00" timeLoss="6.06" rerouteNo="0" devices="tripinfo_E0__0__motorbike.0 emissions_E0__0__motorbike.0" vType="motorbike" speedFactor="0.88" vaporized="">
        <emissions CO_abs="596.49" CO2_abs="51942.14" HC_abs="656.68" PMx_abs="14.10" NOx_abs="46.52" fuel_abs="16842.74" electricity_abs="0.00"/>
    </tripinfo>
    <tripinfo id="E0__0__car.0" depart="13.00" departLane="E0_1" departPos="4.60" departPosLat="0.00" departSpeed="0.00" departDelay="1.97" arrival="50.00" arrivalLane="E1_2" arrivalPos="164.31" arrivalPosLat="0.00" arrivalSpeed="9.16" duration="37.00" routeLength="299.59" waitingTime="0.00" waitingCount="0" stopTime="0.00" timeLoss="5.32" rerouteNo="0" devices="tripinfo_E0__0__car.0 emissions_E0__0__car.0" vType="car" speedFactor="0.88" vaporized="">
        <emissions CO_abs="206.50" CO2_abs="76245.70" HC_abs="1.38" PMx_abs="6.54" NOx_abs="24.96" fuel_abs="24717.84" electricity_abs="0.00"/>
    </tripinfo>
    <tripinfo id="E0__0__motorbike.2" depart="16.00" departLane="E0_1" departPos="2.10" departPosLat="0.00" departSpeed="0.00" departDelay="0.07" arrival="50.00" arrivalLane="E1_1" arrivalPos="164.31" arrivalPosLat="0.00" arrivalSpeed="10.60" duration="34.00" routeLength="302.09" waitingTime="0.00" waitingCount="0" stopTime="0.00" timeLoss="6.15" rerouteNo="0" devices="tripinfo_E0__0__motorbike.2 emissions_E0__0__motorbike.2" vType="motorbike" speedFactor="1.23" vaporized="">
        <emissions CO_abs="739.81" CO2_abs="48974.64" HC_abs="612.60" PMx_abs="13.03" NOx_abs="48.48" fuel_abs="15880.47" electricity_abs="0.00"/>
    </tripinfo>
    <tripinfo id="-E11__0__motorbike.0" depart="1.00" departLane="-E11_3" departPos="2.10" departPosLat="0.00" departSpeed="0.00" departDelay="0.16" arrival="54.00" arrivalLane="E10_2" arrivalPos="216.74" arrivalPosLat="0.00" arrivalSpeed="10.87" duration="53.00" routeLength="497.86" waitingTime="0.00" waitingCount="0" stopTime="0.00" timeLoss="6.54" rerouteNo="0" devices="tripinfo_-E11__0__motorbike.0 emissions_-E11__0__motorbike.0" vType="motorbike" speedFactor="0.99" vaporized="">
        <emissions CO_abs="1144.36" CO2_abs="69443.42" HC_abs="885.01" PMx_abs="18.75" NOx_abs="71.17" fuel_abs="22517.69" electricity_abs="0.00"/>
    </tripinfo>
    <tripinfo id="-E11__0__motorbike.1" depart="5.00" departLane="-E11_2" departPos="2.10" departPosLat="0.00" departSpeed="0.00" departDelay="0.84" arrival="57.00" arrivalLane="E10_1" arrivalPos="216.74" arrivalPosLat="0.00" arrivalSpeed="10.43" duration="52.00" routeLength="497.86" waitingTime="0.00" waitingCount="0" stopTime="0.00" timeLoss="6.71" rerouteNo="0" devices="tripinfo_-E11__0__motorbike.1 emissions_-E11__0__motorbike.1" vType="motorbike" speedFactor="1.10" vaporized="">
        <emissions CO_abs="1096.14" CO2_abs="65234.94" HC_abs="813.45" PMx_abs="17.24" NOx_abs="67.88" fuel_abs="21153.01" electricity_abs="0.00"/>
    </tripinfo>
    <tripinfo id="-E8__0__motorbike.4" depart="14.00" departLane="-E8_2" departPos="2.10" departPosLat="0.00" departSpeed="0.00" departDelay="1.59" arrival="59.00" arrivalLane="E9_3" arrivalPos="212.89" arrivalPosLat="0.00" arrivalSpeed="11.08" duration="45.00" routeLength="437.18" waitingTime="0.00" waitingCount="0" stopTime="0.00" timeLoss="5.64" rerouteNo="0" devices="tripinfo_-E8__0__motorbike.4 emissions_-E8__0__motorbike.4" vType="motorbike" speedFactor="1.08" vaporized="">
        <emissions CO_abs="1040.22" CO2_abs="60188.45" HC_abs="768.58" PMx_abs="16.33" NOx_abs="62.03" fuel_abs="19516.70" electricity_abs="0.00"/>
    </tripinfo>
    <tripinfo id="-E8__0__motorbike.0" depart="2.00" departLane="-E8_2" departPos="2.10" departPosLat="0.00" departSpeed="0.00" departDelay="0.28" arrival="61.00" arrivalLane="E5_1" arrivalPos="170.02" arrivalPosLat="0.00" arrivalSpeed="11.07" duration="59.00" routeLength="541.19" waitingTime="0.00" waitingCount="0" stopTime="0.00" timeLoss="7.96" rerouteNo="0" devices="tripinfo_-E8__0__motorbike.0 emissions_-E8__0__motorbike.0" vType="motorbike" speedFactor="1.04" vaporized="">
        <emissions CO_abs="1411.56" CO2_abs="85880.03" HC_abs="1101.75" PMx_abs="23.35" NOx_abs="87.95" fuel_abs="27847.45" electricity_abs="0.00"/>
    </tripinfo>
    <tripinfo id="-E8__0__motorbike.1" depart="4.00" departLane="-E8_1" departPos="2.10" departPosLat="0.00" departSpeed="0.00" departDelay="0.53" arrival="63.00" arrivalLane="E5_2" arrivalPos="170.02" arrivalPosLat="0.00" arrivalSpeed="10.53" duration="59.00" routeLength="541.19" waitingTime="0.00" waitingCount="0" stopTime="0.00" timeLoss="8.19" rerouteNo="0" devices="tripinfo_-E8__0__motorbike.1 emissions_-E8__0__motorbike.1" vType="motorbike" speedFactor="1.02" vaporized="">
        <emissions CO_abs="1298.97" CO2_abs="81105.33" HC_abs="1025.75" PMx_abs="21.79" NOx_abs="82.53" fuel_abs="26299.17" electricity_abs="0.00"/>
    </tripinfo>
    <tripinfo id="-E5__0__car.1" depart="26.00" departLane="-E5_2" departPos="4.60" departPosLat="0.00" departSpeed="0.00" departDelay="0.20" arrival="63.00" arrivalLane="E4_1" arrivalPos="143.61" arrivalPosLat="0.00" arrivalSpeed="10.65" duration="37.00" routeLength="318.37" waitingTime="0.00" waitingCount="0" stopTime="0.00" timeLoss="7.00" rerouteNo="0" devices="tripinfo_-E5__0__car.1 emissions_-E5__0__car.1" vType="car" speedFactor="0.99" vaporized="">
        <emissions CO_abs="284.48" CO2_abs="86147.77" HC_abs="1.89" PMx_abs="7.25" NOx_abs="28.10" fuel_abs="27927.91" electricity_abs="0.00"/>
    </tripinfo>
    <tripinfo id="-E9__0__car.1" depart="14.00" departLane="-E9_3" departPos="4.60" departPosLat="0.00" departSpeed="0.00" departDelay="0.33" arrival="64.00" arrivalLane="E8_1" arrivalPos="201.31" arrivalPosLat="0.00" arrivalSpeed="9.66" duration="50.00" routeLength="418.76" waitingTime="0.00" waitingCount="0" stopTime="0.00" timeLoss="6.69" rerouteNo="0" devices="tripinfo_-E9__0__car.1 emissions_-E9__0__car.1" vType="car" speedFactor="0.90" vaporized="">
        <emissions CO_abs="278.58" CO2_abs="101001.39" HC_abs="1.86" PMx_abs="9.32" NOx_abs="33.84" fuel_abs="32743.40" electricity_abs="0.00"/>
    </tripinfo>
    <tripinfo id="-E9__0__motorbike.2" depart="16.00" departLane="-E9_2" departPos="2.10" departPosLat="0.00" departSpeed="0.00" departDelay="0.92" arrival="65.00" arrivalLane="E8_2" arrivalPos="201.31" arrivalPosLat="0.00" arrivalSpeed="9.77" duration="49.00" routeLength="421.26" waitingTime="0.00" waitingCount="0" stopTime="0.00" timeLoss="6.95" rerouteNo="0" devices="tripinfo_-E9__0__motorbike.2 emissions_-E9__0__motorbike.2" vType="motorbike" speedFactor="0.92" vaporized="">
        <emissions CO_abs="856.48" CO2_abs="64720.17" HC_abs="839.09" PMx_abs="17.94" NOx_abs="60.43" fuel_abs="20986.20" electricity_abs="0.00"/>
    </tripinfo>
    <tripinfo id="-E8__0__motorbike.3" depart="13.00" departLane="-E8_1" departPos="2.10" departPosLat="0.00" departSpeed="0.00" departDelay="0.71" arrival="69.00" arrivalLane="E4_2" arrivalPos="143.61" arrivalPosLat="0.00" arrivalSpeed="11.04" duration="56.00" routeLength="533.10" waitingTime="0.00" waitingCount="0" stopTime="0.00" timeLoss="7.35" rerouteNo="0" devices="tripinfo_-E8__0__motorbike.3 emissions_-E8__0__motorbike.3" vType="motorbike" speedFactor="1.02" vaporized="">
        <emissions CO_abs="1160.14" CO2_abs="70448.50" HC_abs="887.27" PMx_abs="18.86" NOx_abs="72.03" fuel_abs="22843.59" electricity_abs="0.00"/>
    </tripinfo>
    <tripinfo id="E0__0__motorbike.5" depart="29.00" departLane="E0_3" departPos="2.10" departPosLat="0.00" departSpeed="0.00" departDelay="0.21" arrival="70.00" arrivalLane="E1_2" arrivalPos="164.31" arrivalPosLat="0.00" arrivalSpeed="9.26" duration="41.00" routeLength="302.09" waitingTime="0.00" waitingCount="0" stopTime="0.00" timeLoss="9.07" rerouteNo="0" devices="tripinfo_E0__0__motorbike.5 emissions_E0__0__motorbike.5" vType="motorbike" speedFactor="0.89" vaporized="">
        <emissions CO_abs="589.93" CO2_abs="57911.39" HC_abs="731.65" PMx_abs="15.82" NOx_abs="49.19" fuel_abs="18778.34" electricity_abs="0.00"/>
    </tripinfo>
    <tripinfo id="-E10__0__car.0" depart="1.00" departLane="-E10_2" departPos="4.60" departPosLat="0.00" departSpeed="0.00" departDelay="0.97" arrival="71.00" arrivalLane="E9_1" arrivalPos="212.89" arrivalPosLat="0.00" arrivalSpeed="10.94" duration="70.00" routeLength="674.26" waitingTime="0.00" waitingCount="0" stopTime="0.00" timeLoss="8.07" rerouteNo="0" devices="tripinfo_-E10__0__car.0 emissions_-E10__0__car.0" vType="car" speedFactor="1.02" vaporized="">
        <emissions CO_abs="533.06" CO2_abs="149195.60" HC_abs="3.56" PMx_abs="14.86" NOx_abs="50.24" fuel_abs="48367.34" electricity_abs="0.00"/>
    </tripinfo>
    <tripinfo id="-E9__0__motorbike.3" depart="16.00" departLane="-E9_1" departPos="2.10" departPosLat="0.00" departSpeed="0.00" departDelay="0.41" arrival="73.00" arrivalLane="E8_1" arrivalPos="201.31" arrivalPosLat="0.00" arrivalSpeed="8.14" duration="57.00" routeLength="421.26" waitingTime="0.00" waitingCount="0" stopTime="0.00" timeLoss="6.83" rerouteNo="0" devices="tripinfo_-E9__0__motorbike.3 emissions_-E9__0__motorbike.3" vType="motorbike" speedFactor="0.78" vaporized="">
        <emissions CO_abs="565.34" CO2_abs="61876.24" HC_abs="819.34" PMx_abs="17.67" NOx_abs="50.28" fuel_abs="20064.09" electricity_abs="0.00"/>
    </tripinfo>
    <tripinfo id="-E5__0__motorbike.0" depart="1.00" departLane="-E5_2" departPos="2.10" departPosLat="0.00" departSpeed="0.00" departDelay="0.91" arrival="75.00" arrivalLane="-E0_1" arrivalPos="130.83" arrivalPosLat="0.00" arrivalSpeed="10.64" duration="74.00" routeLength="561.75" waitingTime="6.00" waitingCount="1" stopTime="0.00" timeLoss="21.89" rerouteNo="0" devices="tripinfo_-E5__0__motorbike.0 emissions_-E5__0__motorbike.0" vType="motorbike" speedFactor="0.99" vaporized="">
        <emissions CO_abs="1343.10" CO2_abs="105107.94" HC_abs="1341.20" PMx_abs="28.53" NOx_abs="96.46" fuel_abs="34082.27" electricity_abs="0.00"/>
    </tripinfo>
    <tripinfo id="-E5__0__motorbike.4" depart="36.00" departLane="-E5_1" departPos="2.10" departPosLat="0.00" departSpeed="0.00" departDelay="0.30" arrival="75.00" arrivalLane="E4_2" arrivalPos="143.61" arrivalPosLat="0.00" arrivalSpeed="10.40" duration="39.00" routeLength="320.87" waitingTime="0.00" waitingCount="0" stopTime="0.00" timeLoss="7.26" rerouteNo="0" devices="tripinfo_-E5__0__motorbike.4 emissions_-E5__0__motorbike.4" vType="motorbike" speedFactor="0.96" vaporized="">
        <emissions CO_abs="743.94" CO2_abs="56930.81" HC_abs="730.66" PMx_abs="15.67" NOx_abs="52.39" fuel_abs="18460.41" electricity_abs="0.00"/>
    </tripinfo>
    <tripinfo id="-E8__0__car.0" depart="17.00" departLane="-E8_1" departPos="4.60" departPosLat="0.00" departSpeed="0.00" departDelay="2.99" arrival="78.00" arrivalLane="E5_1" arrivalPos="170.02" arrivalPosLat="0.00" arrivalSpeed="10.71" duration="61.00" routeLength="538.69" waitingTime="0.00" waitingCount="0" stopTime="0.00" timeLoss="11.09" rerouteNo="0" devices="tripinfo_-E8__0__car.0 emissions_-E8__0__car.0" vType="car" speedFactor="1.07" vaporized="">
        <emissions CO_abs="462.50" CO2_abs="141446.16" HC_abs="3.08" PMx_abs="13.27" NOx_abs="47.18" fuel_abs="45855.03" electricity_abs="0.00"/>
    </tripinfo>
    <tripinfo id="-E1__0__motorbike.3" depart="13.00" departLane="-E1_2" departPos="2.10" departPosLat="0.00" departSpeed="0.00" departDelay="0.68" arrival="80.00" arrivalLane="E11_1" arrivalPos="274.15" arrivalPosLat="0.00" arrivalSpeed="11.08" duration="67.00" routeLength="611.25" waitingTime="0.00" waitingCount="0" stopTime="0.00" timeLoss="10.92" rerouteNo="0" devices="tripinfo_-E1__0__motorbike.3 emissions_-E1__0__motorbike.3" vType="motorbike" speedFactor="1.04" vaporized="">
        <emissions CO_abs="1435.24" CO2_abs="90874.18" HC_abs="1144.09" PMx_abs="24.24" NOx_abs="92.31" fuel_abs="29466.78" electricity_abs="0.00"/>
    </tripinfo>
    <tripinfo id="-E11__0__motorbike.4" depart="24.00" departLane="-E11_2" departPos="2.10" departPosLat="0.00" departSpeed="0.00" departDelay="0.65" arrival="80.00" arrivalLane="E10_1" arrivalPos="216.74" arrivalPosLat="0.00" arrivalSpeed="9.88" duration="56.00" routeLength="497.86" waitingTime="0.00" waitingCount="0" stopTime="0.00" timeLoss="7.50" rerouteNo="0" devices="tripinfo_-E11__0__motorbike.4 emissions_-E11__0__motorbike.4" vType="motorbike" speedFactor="0.95" vaporized="">
        <emissions CO_abs="954.26" CO2_abs="66670.23" HC_abs="866.44" PMx_abs="18.48" NOx_abs="63.74" fuel_abs="21618.53" electricity_abs="0.00"/>
    </tripinfo>
    <tripinfo id="E0__0__motorbike.8" depart="45.00" departLane="E0_2" departPos="2.10" departPosLat="0.00" departSpeed="0.00" departDelay="0.54" arrival="80.00" arrivalLane="E1_2" arrivalPos="164.31" arrivalPosLat="0.00" arrivalSpeed="10.61" duration="35.00" routeLength="302.09" waitingTime="0.00" waitingCount="0" stopTime="0.00" timeLoss="7.13" rerouteNo="0" devices="tripinfo_E0__0__motorbike.8 emissions_E0__0__motorbike.8" vType="motorbike" speedFactor="1.01" vaporized="">
        <emissions CO_abs="709.93" CO2_abs="51511.72" HC_abs="639.50" PMx_abs="13.67" NOx_abs="49.33" fuel_abs="16703.14" electricity_abs="0.00"/>
    </tripinfo>
    <tripinfo id="-E5__0__motorbike.5" depart="40.00" departLane="-E5_1" departPos="2.10" departPosLat="0.00" departSpeed="0.00" departDelay="0.48" arrival="81.00" arrivalLane="E4_1" arrivalPos="143.61" arrivalPosLat="0.00" arrivalSpeed="9.10" duration="41.00" routeLength="320.87" waitingTime="0.00" waitingCount="0" stopTime="0.00" timeLoss="5.81" rerouteNo="0" devices="tripinfo_-E5__0__motorbike.5 emissions_-E5__0__motorbike.5" vType="motorbike" speedFactor="0.85" vaporized="">
        <emissions CO_abs="514.88" CO2_abs="49685.97" HC_abs="642.91" PMx_abs="13.86" NOx_abs="42.25" fuel_abs="16111.21" electricity_abs="0.00"/>
    </tripinfo>
    <tripinfo id="-E4__0__motorbike.2" depart="25.00" departLane="-E4_3" departPos="2.10" departPosLat="0.00" departSpeed="0.00" departDelay="0.31" arrival="82.00" arrivalLane="-E0_1" arrivalPos="130.83" arrivalPosLat="0.00" arrivalSpeed="10.59" duration="57.00" routeLength="516.94" waitingTime="0.00" waitingCount="0" stopTime="0.00" timeLoss="9.11" rerouteNo="0" devices="tripinfo_-E4__0__motorbike.2 emissions_-E4__0__motorbike.2" vType="motorbike" speedFactor="1.29" vaporized="">
        <emissions CO_abs="1302.84" CO2_abs="81908.67" HC_abs="1014.64" PMx_abs="21.53" NOx_abs="84.27" fuel_abs="26559.59" electricity_abs="0.00"/>
    </tripinfo>
    <tripinfo id="-E5__0__car.2" depart="43.00" departLane="-E5_1" departPos="4.60" departPosLat="0.00" departSpeed="0.00" departDelay="0.89" arrival="83.00" arrivalLane="E4_1" arrivalPos="143.61" arrivalPosLat="0.00" arrivalSpeed="10.58" duration="40.00" routeLength="318.37" waitingTime="0.00" waitingCount="0" stopTime="0.00" timeLoss="10.31" rerouteNo="0" devices="tripinfo_-E5__0__car.2 emissions_-E5__0__car.2" vType="car" speedFactor="1.15" vaporized="">
        <emissions CO_abs="257.59" CO2_abs="85594.29" HC_abs="1.71" PMx_abs="7.03" NOx_abs="28.01" fuel_abs="27748.51" electricity_abs="0.00"/>
    </tripinfo>
    <tripinfo id="-E5__0__car.4" depart="47.00" departLane="-E5_1" departPos="4.60" departPosLat="0.00" departSpeed="0.00" departDelay="3.68" arrival="85.00" arrivalLane="E4_1" arrivalPos="143.61" arrivalPosLat="0.00" arrivalSpeed="10.83" duration="38.00" routeLength="318.37" waitingTime="0.00" waitingCount="0" stopTime="0.00" timeLoss="7.89" rerouteNo="0" devices="tripinfo_-E5__0__car.4 emissions_-E5__0__car.4" vType="car" speedFactor="1.04" vaporized="">
        <emissions CO_abs="305.95" CO2_abs="90641.58" HC_abs="2.04" PMx_abs="7.51" NOx_abs="29.56" fuel_abs="29384.74" electricity_abs="0.00"/>
    </tripinfo>
    <tripinfo id="-E1__0__motorbike.4" depart="20.00" departLane="-E1_3" departPos="2.10" departPosLat="0.00" departSpeed="0.00" departDelay="0.72" arrival="86.00" arrivalLane="E11_1" arrivalPos="274.15" arrivalPosLat="0.00" arrivalSpeed="10.37" duration="66.00" routeLength="611.25" waitingTime="0.00" waitingCount="0" stopTime="0.00" timeLoss="8.95" rerouteNo="0" devices="tripinfo_-E1__0__motorbike.4 emissions_-E1__0__motorbike.4" vType="motorbike" speedFactor="1.04" vaporized="">
        <emissions CO_abs="1446.55" CO2_abs="87418.77" HC_abs="1109.26" PMx_abs="23.51" NOx_abs="90.09" fuel_abs="28346.37" electricity_abs="0.00"/>
    </tripinfo>
    <tripinfo id="E0__0__motorbike.10" depart="53.00" departLane="E0_2" departPos="2.10" departPosLat="0.00" departSpeed="0.00" departDelay="0.87" arrival="88.00" arrivalLane="E1_1" arrivalPos="164.31" arrivalPosLat="0.00" arrivalSpeed="10.37" duration="35.00" routeLength="302.09" waitingTime="0.00" waitingCount="0" stopTime="0.00" timeLoss="7.31" rerouteNo="0" devices="tripinfo_E0__0__motorbike.10 emissions_E0__0__motorbike.10" vType="motorbike" speedFactor="1.13" vaporized="">
        <emissions CO_abs="809.43" CO2_abs="57066.57" HC_abs="717.19" PMx_abs="15.33" NOx_abs="54.83" fuel_abs="18504.37" electricity_abs="0.00"/>
    </tripinfo>
    <tripinfo id="-E1__0__motorbike.8" depart="42.00" departLane="-E1_1" departPos="2.10" departPosLat="0.00" departSpeed="0.00" departDelay="0.70" arrival="89.00" arrivalLane="-E0_3" arrivalPos="130.83" arrivalPosLat="-1.05" arrivalSpeed="10.48" duration="47.00" routeLength="317.65" waitingTime="7.00" waitingCount="1" stopTime="0.00" timeLoss="18.12" rerouteNo="0" devices="tripinfo_-E1__0__motorbike.8 emissions_-E1__0__motorbike.8" vType="motorbike" speedFactor="1.04" vaporized="">
        <emissions CO_abs="702.80" CO2_abs="68547.78" HC_abs="903.17" PMx_abs="18.93" NOx_abs="56.05" fuel_abs="22227.33" electricity_abs="0.00"/>
    </tripinfo>
    <tripinfo id="-E1__0__motorbike.5" depart="22.00" departLane="-E1_1" departPos="2.10" departPosLat="0.00" departSpeed="0.00" departDelay="1.68" arrival="90.00" arrivalLane="-E0_3" arrivalPos="130.83" arrivalPosLat="0.00" arrivalSpeed="10.79" duration="68.00" routeLength="317.65" waitingTime="27.00" waitingCount="1" stopTime="0.00" timeLoss="38.65" rerouteNo="0" devices="tripinfo_-E1__0__motorbike.5 emissions_-E1__0__motorbike.5" vType="motorbike" speedFactor="1.15" vaporized="">
        <emissions CO_abs="715.54" CO2_abs="98166.49" HC_abs="1375.28" PMx_abs="29.25" NOx_abs="67.47" fuel_abs="31831.80" electricity_abs="0.00"/>
    </tripinfo>
    <tripinfo id="-E11__0__car.3" depart="34.00" departLane="-E11_1" departPos="4.60" departPosLat="0.00" departSpeed="0.00" departDelay="0.34" arrival="91.00" arrivalLane="E10_1" arrivalPos="216.74" arrivalPosLat="0.00" arrivalSpeed="9.42" duration="57.00" routeLength="495.36" waitingTime="0.00" waitingCount="0" stopTime="0.00" timeLoss="6.66" rerouteNo="0" devices="tripinfo_-E11__0__car.3 emissions_-E11__0__car.3" vType="car" speedFactor="0.91" vaporized="">
        <emissions CO_abs="292.96" CO2_abs="111361.95" HC_abs="1.96" PMx_abs="11.07" NOx_abs="37.69" fuel_abs="36102.22" electricity_abs="0.00"/>
    </tripinfo>
    <tripinfo id="-E9__0__car.0" depart="4.00" departLane="-E9_2" departPos="4.60" departPosLat="0.00" departSpeed="0.00" departDelay="0.57" arrival="92.00" arrivalLane="E5_2" arrivalPos="170.02" arrivalPosLat="0.00" arrivalSpeed="10.63" duration="88.00" routeLength="568.20" waitingTime="21.00" waitingCount="1" stopTime="0.00" timeLoss="34.61" rerouteNo="0" devices="tripinfo_-E9__0__car.0 emissions_-E9__0__car.0" vType="car" speedFactor="0.98" vaporized="">
        <emissions CO_abs="426.74" CO2_abs="178535.67" HC_abs="2.85" PMx_abs="13.66" NOx_abs="61.67" fuel_abs="57879.23" electricity_abs="0.00"/>
    </tripinfo>
    <tripinfo id="-E1__0__motorbike.1" depart="7.00" departLane="-E1_1" departPos="2.10" departPosLat="0.00" departSpeed="0.00" departDelay="0.20" arrival="92.00" arrivalLane="E9_1" arrivalPos="212.89" arrivalPosLat="0.00" arrivalSpeed="10.70" duration="85.00" routeLength="805.21" waitingTime="0.00" waitingCount="0" stopTime="0.00" timeLoss="10.32" rerouteNo="0" devices="tripinfo_-E1__0__motorbike.1 emissions_-E1__0__motorbike.1" vType="motorbike" speedFactor="1.02" vaporized="">
        <emissions CO_abs="1855.32" CO2_abs="109056.70" HC_abs="1386.43" PMx_abs="29.36" NOx_abs="113.61" fuel_abs="35362.67" electricity_abs="0.00"/>
    </tripinfo>
    <tripinfo id="-E9__0__motorbike.7" depart="44.00" departLane="-E9_1" departPos="2.10" departPosLat="0.00" departSpeed="0.00" departDelay="0.72" arrival="92.00" arrivalLane="E8_2" arrivalPos="201.31" arrivalPosLat="0.00" arrivalSpeed="9.91" duration="48.00" routeLength="421.26" waitingTime="0.00" waitingCount="0" stopTime="0.00" timeLoss="7.60" rerouteNo="0" devices="tripinfo_-E9__0__motorbike.7 emissions_-E9__0__motorbike.7" vType="motorbike" speedFactor="0.95" vaporized="">
        <emissions CO_abs="824.50" CO2_abs="61530.70" HC_abs="788.51" PMx_abs="16.88" NOx_abs="57.50" fuel_abs="19951.96" electricity_abs="0.00"/>
    </tripinfo>
    <tripinfo id="-E8__0__motorbike.2" depart="11.00" departLane="-E8_2" departPos="2.10" departPosLat="0.00" departSpeed="0.00" departDelay="0.83" arrival="94.00" arrivalLane="-E0_1" arrivalPos="130.83" arrivalPosLat="0.00" arrivalSpeed="10.83" duration="83.00" routeLength="753.22" waitingTime="0.00" waitingCount="0" stopTime="0.00" timeLoss="13.33" rerouteNo="0" devices="tripinfo_-E8__0__motorbike.2 emissions_-E8__0__motorbike.2" vType="motorbike" speedFactor="1.09" vaporized="">
        <emissions CO_abs="1841.11" CO2_abs="113898.78" HC_abs="1432.66" PMx_abs="30.26" NOx_abs="118.36" fuel_abs="36932.70" electricity_abs="0.00"/>
    </tripinfo>
    <tripinfo id="-E1__0__motorbike.6" depart="27.00" departLane="-E1_3" departPos="2.10" departPosLat="0.00" departSpeed="0.00" departDelay="0.05" arrival="94.00" arrivalLane="E11_1" arrivalPos="274.15" arrivalPosLat="0.00" arrivalSpeed="10.38" duration="67.00" routeLength="611.25" waitingTime="0.00" waitingCount="0" stopTime="0.00" timeLoss="8.14" rerouteNo="0" devices="tripinfo_-E1__0__motorbike.6 emissions_-E1__0__motorbike.6" vType="motorbike" speedFactor="0.96" vaporized="">
        <emissions CO_abs="1293.26" CO2_abs="85285.76" HC_abs="1098.81" PMx_abs="23.31" NOx_abs="84.95" fuel_abs="27654.76" electricity_abs="0.00"/>
    </tripinfo>
    <tripinfo id="-E9__0__motorbike.8" depart="46.00" departLane="-E9_2" departPos="2.10" departPosLat="0.00" departSpeed="0.00" departDelay="0.10" arrival="97.00" arrivalLane="E8_1" arrivalPos="201.31" arrivalPosLat="0.00" arrivalSpeed="9.64" duration="51.00" routeLength="421.26" waitingTime="0.00" waitingCount="0" stopTime="0.00" timeLoss="7.21" rerouteNo="0" devices="tripinfo_-E9__0__motorbike.8 emissions_-E9__0__motorbike.8" vType="motorbike" speedFactor="0.90" vaporized="">
        <emissions CO_abs="848.37" CO2_abs="68753.81" HC_abs="905.47" PMx_abs="19.44" NOx_abs="61.61" fuel_abs="22294.20" electricity_abs="0.00"/>
    </tripinfo>
    <tripinfo id="-E4__0__motorbike.5" depart="40.00" departLane="-E4_2" departPos="2.10" departPosLat="0.00" departSpeed="0.00" departDelay="0.18" arrival="98.00" arrivalLane="-E0_1" arrivalPos="130.83" arrivalPosLat="0.00" arrivalSpeed="10.73" duration="58.00" routeLength="516.94" waitingTime="0.00" waitingCount="0" stopTime="0.00" timeLoss="10.10" rerouteNo="0" devices="tripinfo_-E4__0__motorbike.5 emissions_-E4__0__motorbike.5" vType="motorbike" speedFactor="1.10" vaporized="">
        <emissions CO_abs="1302.27" CO2_abs="84667.88" HC_abs="1076.42" PMx_abs="22.87" NOx_abs="84.38" fuel_abs="27454.38" electricity_abs="0.00"/>
    </tripinfo>
    <tripinfo id="-E10__0__motorbike.1" depart="26.00" departLane="-E10_3" departPos="2.10" departPosLat="0.00" departSpeed="0.00" departDelay="0.78" arrival="99.00" arrivalLane="E9_1" arrivalPos="212.89" arrivalPosLat="0.00" arrivalSpeed="10.85" duration="73.00" routeLength="676.76" waitingTime="0.00" waitingCount="0" stopTime="0.00" timeLoss="10.33" rerouteNo="0" devices="tripinfo_-E10__0__motorbike.1 emissions_-E10__0__motorbike.1" vType="motorbike" speedFactor="1.15" vaporized="">
        <emissions CO_abs="1537.43" CO2_abs="94775.23" HC_abs="1212.54" PMx_abs="25.72" NOx_abs="96.54" fuel_abs="30731.80" electricity_abs="0.00"/>
    </tripinfo>
    <tripinfo id="-E5__0__car.5" depart="59.00" departLane="-E5_3" departPos="4.60" departPosLat="0.00" departSpeed="0.00" departDelay="0.28" arrival="99.00" arrivalLane="E4_1" arrivalPos="143.61" arrivalPosLat="0.00" arrivalSpeed="9.57" duration="40.00" routeLength="318.37" waitingTime="0.00" waitingCount="0" stopTime="0.00" timeLoss="6.04" rerouteNo="0" devices="tripinfo_-E5__0__car.5 emissions_-E5__0__car.5" vType="car" speedFactor="0.88" vaporized="">
        <emissions CO_abs="234.09" CO2_abs="82512.09" HC_abs="1.56" PMx_abs="6.61" NOx_abs="26.82" fuel_abs="26749.29" electricity_abs="0.00"/>
    </tripinfo>
    <tripinfo id="-E11__0__car.4" depart="44.00" departLane="-E11_2" departPos="4.60" departPosLat="0.00" departSpeed="0.00" departDelay="0.81" arrival="101.00" arrivalLane="E10_1" arrivalPos="216.74" arrivalPosLat="0.00" arrivalSpeed="9.88" duration="57.00" routeLength="495.36" waitingTime="0.00" waitingCount="0" stopTime="0.00" timeLoss="6.87" rerouteNo="0" devices="tripinfo_-E11__0__car.4 emissions_-E11__0__car.4" vType="car" speedFactor="0.92" vaporized="">
        <emissions CO_abs="305.93" CO2_abs="113938.67" HC_abs="2.05" PMx_abs="11.41" NOx_abs="38.64" fuel_abs="36937.57" electricity_abs="0.00"/>
    </tripinfo>
    <tripinfo id="-E5__1__motorbike.0" depart="62.00" departLane="-E5_2" departPos="2.10" departPosLat="0.00" departSpeed="0.00" departDelay="0.79" arrival="101.00" arrivalLane="E4_2" arrivalPos="143.61" arrivalPosLat="0.00" arrivalSpeed="9.62" duration="39.00" routeLength="320.87" waitingTime="0.00" waitingCount="0" stopTime="0.00" timeLoss="6.31" rerouteNo="0" devices="tripinfo_-E5__1__motorbike.0 emissions_-E5__1__motorbike.0" vType="motorbike" speedFactor="0.91" vaporized="">
        <emissions CO_abs="674.45" CO2_abs="55426.15" HC_abs="706.22" PMx_abs="15.18" NOx_abs="50.19" fuel_abs="17972.49" electricity_abs="0.00"/>
    </tripinfo>
    <tripinfo id="-E11__0__car.5" depart="47.00" departLane="-E11_1" departPos="4.60" departPosLat="0.00" departSpeed="0.00" departDelay="0.98" arrival="102.00" arrivalLane="E10_2" arrivalPos="216.74" arrivalPosLat="0.00" arrivalSpeed="10.73" duration="55.00" routeLength="495.36" waitingTime="0.00" waitingCount="0" stopTime="0.00" timeLoss="9.74" rerouteNo="0" devices="tripinfo_-E11__0__car.5 emissions_-E11__0__car.5" vType="car" speedFactor="1.03" vaporized="">
        <emissions CO_abs="367.74" CO2_abs="117107.82" HC_abs="2.46" PMx_abs="11.12" NOx_abs="39.05" fuel_abs="37964.85" electricity_abs="0.00"/>
    </tripinfo>
    <tripinfo id="-E10__0__motorbike.4" depart="31.00" departLane="-E10_1" departPos="2.10" departPosLat="0.00" departSpeed="0.00" departDelay="0.11" arrival="103.00" arrivalLane="E8_2" arrivalPos="201.31" arrivalPosLat="0.00" arrivalSpeed="10.82" duration="72.00" routeLength="682.98" waitingTime="0.00" waitingCount="0" stopTime="0.00" timeLoss="9.22" rerouteNo="0" devices="tripinfo_-E10__0__motorbike.4 emissions_-E10__0__motorbike.4" vType="motorbike" speedFactor="1.07" vaporized="">
        <emissions CO_abs="1516.97" CO2_abs="89427.21" HC_abs="1153.36" PMx_abs="24.41" NOx_abs="92.05" fuel_abs="28997.67" electricity_abs="0.00"/>
    </tripinfo>