<?xml version="1.0" encoding="UTF-8"?>

<!-- generated on 2025-12-26 13:30:07 by Eclipse SUMO GUI Version 1.24.0
<sumoConfiguration xmlns:xsi="http://www.w3.org/2001/XMLSchema-instance" xsi:noNamespaceSchemaLocation="http://sumo.dlr.de/xsd/sumoConfiguration.xsd">

    <input>
        <net-file value="Scenario/test/env/test.net.xml"/>
        <route-files value="Scenario/test/env/../routes/vehicle.rou.xml"/>
        <additional-files value="Scenario/test/env/../add/tls.add.xml,Scenario/test/env/ ../add/e2.add.xml"/>
    </input>

    <output>
        <tripinfo-output value="/home/hoanganh04/Projects/CoLight/deploy.tripinfo.xml"/>
        <tripinfo-output.write-unfinished value="true"/>
    </output>

    <time>
        <begin value="0"/>
        <end value="500"/>
        <step-length value="1.0"/>
    </time>

    <processing>
        <lateral-resolution value="0.2"/>
        <time-to-teleport value="-1"/>
        <waiting-time-memory value="10000"/>
        <max-depart-delay value="100000"/>
    </processing>

    <report>
        <no-warnings value="true"/>
        <no-step-log value="true"/>
    </report>

    <emissions>
        <device.emissions.probability value="1.0"/>
    </emissions>

    <traci_server>
        <remote-port value="34785"/>
    </traci_server>

    <random_number>
        <random value="true"/>
    </random_number>

    <gui_only>
        <quit-on-end value="true"/>
        <start value="true"/>
    </gui_only>

</sumoConfiguration>
-->

<tripinfos xmlns:xsi="http://www.w3.org/2001/XMLSchema-instance" xsi:noNamespaceSchemaLocation="http://sumo.dlr.de/xsd/tripinfo_file.xsd">
    <tripinfo id="E0__0__motorbike.1" depart="1.00" departLane="E0_2" departPos="2.10" departPosLat="0.00" departSpeed="0.00" departDelay="0.81" arrival="28.00" arrivalLane="E1_1" arrivalPos="107.01" arrivalPosLat="0.00" arrivalSpeed="8.83" duration="27.00" routeLength="190.74" waitingTime="0.00" waitingCount="0" stopTime="0.00" timeLoss="5.84" rerouteNo="0" devices="tripinfo_E0__0__motorbike.1 emissions_E0__0__motorbike.1" vType="motorbike" speedFactor="0.85" vaporized="">
        <emissions CO_abs="352.44" CO2_abs="38169.11" HC_abs="467.45" PMx_abs="10.15" NOx_abs="31.81" fuel_abs="12376.67" electricity_abs="0.00"/>
    </tripinfo>
    <tripinfo id="E0__0__motorbike.2" depart="2.00" departLane="E0_3" departPos="2.10" departPosLat="0.00" departSpeed="0.00" departDelay="0.28" arrival="29.00" arrivalLane="E1_2" arrivalPos="107.01" arrivalPosLat="0.00" arrivalSpeed="10.99" duration="27.00" routeLength="190.74" waitingTime="0.00" waitingCount="0" stopTime="0.00" timeLoss="9.03" rerouteNo="0" devices="tripinfo_E0__0__motorbike.2 emissions_E0__0__motorbike.2" vType="motorbike" speedFactor="1.13" vaporized="">
        <emissions CO_abs="552.16" CO2_abs="49719.46" HC_abs="609.57" PMx_abs="13.15" NOx_abs="43.92" fuel_abs="16121.97" electricity_abs="0.00"/>
    </tripinfo>
    <tripinfo id="E0__0__car.0" depart="5.00" departLane="E0_2" departPos="4.60" departPosLat="0.00" departSpeed="0.00" departDelay="0.16" arrival="31.00" arrivalLane="E1_1" arrivalPos="107.01" arrivalPosLat="0.00" arrivalSpeed="10.82" duration="26.00" routeLength="188.24" waitingTime="0.00" waitingCount="0" stopTime="0.00" timeLoss="7.51" rerouteNo="0" devices="tripinfo_E0__0__car.0 emissions_E0__0__car.0" vType="car" speedFactor="0.98" vaporized="">
        <emissions CO_abs="188.94" CO2_abs="64949.48" HC_abs="1.26" PMx_abs="4.87" NOx_abs="20.83" fuel_abs="21055.68" electricity_abs="0.00"/>
    </tripinfo>
    <tripinfo id="-E2__0__car.0" depart="6.00" departLane="-E2_2" departPos="4.60" departPosLat="0.00" departSpeed="0.00" departDelay="0.01" arrival="32.00" arrivalLane="-E0_2" arrivalPos="76.80" arrivalPosLat="0.00" arrivalSpeed="8.87" duration="26.00" routeLength="200.28" waitingTime="0.00" waitingCount="0" stopTime="0.00" timeLoss="4.65" rerouteNo="0" devices="tripinfo_-E2__0__car.0 emissions_-E2__0__car.0" vType="car" speedFactor="0.86" vaporized="">
        <emissions CO_abs="137.77" CO2_abs="53931.39" HC_abs="0.92" PMx_abs="4.34" NOx_abs="17.54" fuel_abs="17483.81" electricity_abs="0.00"/>
    </tripinfo>
    <tripinfo id="-E4__0__motorbike.0" depart="1.00" departLane="-E4_2" departPos="2.10" departPosLat="0.00" departSpeed="0.00" departDelay="0.97" arrival="33.00" arrivalLane="E5_1" arrivalPos="146.08" arrivalPosLat="0.00" arrivalSpeed="10.38" duration="32.00" routeLength="253.66" waitingTime="0.00" waitingCount="0" stopTime="0.00" timeLoss="6.82" rerouteNo="0" devices="tripinfo_-E4__0__motorbike.0 emissions_-E4__0__motorbike.0" vType="motorbike" speedFactor="0.96" vaporized="">
        <emissions CO_abs="597.11" CO2_abs="47733.22" HC_abs="586.51" PMx_abs="12.57" NOx_abs="44.46" fuel_abs="15477.91" electricity_abs="0.00"/>
    </tripinfo>
    <tripinfo id="-E5__0__car.0" depart="1.00" departLane="-E5_3" departPos="4.60" departPosLat="0.00" departSpeed="0.00" departDelay="0.71" arrival="33.00" arrivalLane="E6_1" arrivalPos="109.06" arrivalPosLat="0.00" arrivalSpeed="10.40" duration="32.00" routeLength="259.57" waitingTime="0.00" waitingCount="0" stopTime="0.00" timeLoss="7.83" rerouteNo="0" devices="tripinfo_-E5__0__car.0 emissions_-E5__0__car.0" vType="car" speedFactor="1.15" vaporized="">
        <emissions CO_abs="264.72" CO2_abs="81593.69" HC_abs="1.76" PMx_abs="6.49" NOx_abs="26.44" fuel_abs="26451.52" electricity_abs="0.00"/>
    </tripinfo>
    <tripinfo id="-E1__0__motorbike.0" depart="4.00" departLane="-E1_3" departPos="2.10" departPosLat="0.00" departSpeed="0.00" departDelay="0.42" arrival="33.00" arrivalLane="E2_1" arrivalPos="100.88" arrivalPosLat="0.00" arrivalSpeed="9.61" duration="29.00" routeLength="214.82" waitingTime="0.00" waitingCount="0" stopTime="0.00" timeLoss="6.80" rerouteNo="0" devices="tripinfo_-E1__0__motorbike.0 emissions_-E1__0__motorbike.0" vType="motorbike" speedFactor="0.92" vaporized="">
        <emissions CO_abs="496.47" CO2_abs="46980.81" HC_abs="596.24" PMx_abs="12.86" NOx_abs="40.34" fuel_abs="15234.00" electricity_abs="0.00"/>
    </tripinfo>
    <tripinfo id="-E2__0__motorbike.3" depart="8.00" departLane="-E2_3" departPos="2.10" departPosLat="0.00" departSpeed="0.00" departDelay="0.05" arrival="33.00" arrivalLane="-E0_2" arrivalPos="76.80" arrivalPosLat="0.00" arrivalSpeed="10.03" duration="25.00" routeLength="202.78" waitingTime="0.00" waitingCount="0" stopTime="0.00" timeLoss="6.72" rerouteNo="0" devices="tripinfo_-E2__0__motorbike.3 emissions_-E2__0__motorbike.3" vType="motorbike" speedFactor="1.05" vaporized="">
        <emissions CO_abs="495.15" CO2_abs="38410.39" HC_abs="473.62" PMx_abs="10.14" NOx_abs="35.93" fuel_abs="12454.90" electricity_abs="0.00"/>
    </tripinfo>
    <tripinfo id="-E1__0__motorbike.1" depart="7.00" departLane="-E1_2" departPos="2.10" departPosLat="0.00" departSpeed="0.00" departDelay="0.46" arrival="34.00" arrivalLane="E2_1" arrivalPos="100.88" arrivalPosLat="1.00" arrivalSpeed="10.67" duration="27.00" routeLength="214.82" waitingTime="0.00" waitingCount="0" stopTime="0.00" timeLoss="6.73" rerouteNo="0" devices="tripinfo_-E1__0__motorbike.1 emissions_-E1__0__motorbike.1" vType="motorbike" speedFactor="1.00" vaporized="">
        <emissions CO_abs="576.64" CO2_abs="44334.10" HC_abs="538.18" PMx_abs="11.49" NOx_abs="42.30" fuel_abs="14375.69" electricity_abs="0.00"/>
    </tripinfo>
    <tripinfo id="-E1__0__car.0" depart="10.00" departLane="-E1_2" departPos="4.60" departPosLat="0.00" departSpeed="0.00" departDelay="2.29" arrival="36.00" arrivalLane="E2_1" arrivalPos="100.88" arrivalPosLat="0.00" arrivalSpeed="10.62" duration="26.00" routeLength="212.32" waitingTime="0.00" waitingCount="0" stopTime="0.00" timeLoss="5.97" rerouteNo="0" devices="tripinfo_-E1__0__car.0 emissions_-E1__0__car.0" vType="car" speedFactor="1.10" vaporized="">
        <emissions CO_abs="239.02" CO2_abs="65358.67" HC_abs="1.58" PMx_abs="4.57" NOx_abs="20.78" fuel_abs="21188.28" electricity_abs="0.00"/>
    </tripinfo>
    <tripinfo id="-E4__0__car.2" depart="5.00" departLane="-E4_3" departPos="4.60" departPosLat="0.00" departSpeed="0.00" departDelay="1.53" arrival="38.00" arrivalLane="E5_2" arrivalPos="146.08" arrivalPosLat="0.00" arrivalSpeed="10.85" duration="33.00" routeLength="251.16" waitingTime="0.00" waitingCount="0" stopTime="0.00" timeLoss="8.68" rerouteNo="0" devices="tripinfo_-E4__0__car.2 emissions_-E4__0__car.2" vType="car" speedFactor="0.98" vaporized="">
        <emissions CO_abs="253.12" CO2_abs="80182.23" HC_abs="1.68" PMx_abs="6.02" NOx_abs="25.64" fuel_abs="25993.90" electricity_abs="0.00"/>
    </tripinfo>
    <tripinfo id="-E5__0__car.1" depart="9.00" departLane="-E5_3" departPos="4.60" departPosLat="0.00" departSpeed="0.00" departDelay="0.47" arrival="40.00" arrivalLane="E6_1" arrivalPos="109.06" arrivalPosLat="0.00" arrivalSpeed="10.67" duration="31.00" routeLength="259.57" waitingTime="0.00" waitingCount="0" stopTime="0.00" timeLoss="6.64" rerouteNo="0" devices="tripinfo_-E5__0__car.1 emissions_-E5__0__car.1" vType="car" speedFactor="1.15" vaporized="">
        <emissions CO_abs="244.95" CO2_abs="76494.12" HC_abs="1.63" PMx_abs="6.56" NOx_abs="24.89" fuel_abs="24798.33" electricity_abs="0.00"/>
    </tripinfo>
    <tripinfo id="-E4__0__car.1" depart="4.00" departLane="-E4_2" departPos="4.60" departPosLat="0.00" departSpeed="0.00" departDelay="0.57" arrival="41.00" arrivalLane="E5_2" arrivalPos="146.08" arrivalPosLat="0.00" arrivalSpeed="10.76" duration="37.00" routeLength="251.16" waitingTime="2.00" waitingCount="1" stopTime="0.00" timeLoss="13.24" rerouteNo="0" devices="tripinfo_-E4__0__car.1 emissions_-E4__0__car.1" vType="car" speedFactor="1.07" vaporized="">
        <emissions CO_abs="245.30" CO2_abs="88213.33" HC_abs="1.63" PMx_abs="6.45" NOx_abs="29.00" fuel_abs="28597.48" electricity_abs="0.00"/>
    </tripinfo>
    <tripinfo id="-E4__0__motorbike.1" depart="6.00" departLane="-E4_2" departPos="2.10" departPosLat="0.00" departSpeed="0.00" departDelay="1.46" arrival="43.00" arrivalLane="E5_2" arrivalPos="146.08" arrivalPosLat="0.00" arrivalSpeed="10.74" duration="37.00" routeLength="253.66" waitingTime="1.00" waitingCount="1" stopTime="0.00" timeLoss="13.25" rerouteNo="0" devices="tripinfo_-E4__0__motorbike.1 emissions_-E4__0__motorbike.1" vType="motorbike" speedFactor="1.04" vaporized="">
        <emissions CO_abs="680.37" CO2_abs="61592.63" HC_abs="746.60" PMx_abs="16.17" NOx_abs="53.47" fuel_abs="19971.94" electricity_abs="0.00"/>
    </tripinfo>
    <tripinfo id="E0__0__motorbike.5" depart="15.00" departLane="E0_2" departPos="2.10" departPosLat="0.00" departSpeed="0.00" departDelay="0.99" arrival="43.00" arrivalLane="E1_1" arrivalPos="107.01" arrivalPosLat="0.00" arrivalSpeed="9.18" duration="28.00" routeLength="190.74" waitingTime="0.00" waitingCount="0" stopTime="0.00" timeLoss="7.05" rerouteNo="0" devices="tripinfo_E0__0__motorbike.5 emissions_E0__0__motorbike.5" vType="motorbike" speedFactor="0.85" vaporized="">
        <emissions CO_abs="409.91" CO2_abs="44948.16" HC_abs="567.27" PMx_abs="12.28" NOx_abs="36.73" fuel_abs="14574.89" electricity_abs="0.00"/>
    </tripinfo>
    <tripinfo id="-E1__0__motorbike.2" depart="7.00" departLane="-E1_1" departPos="2.10" departPosLat="0.00" departSpeed="0.00" departDelay="0.20" arrival="44.00" arrivalLane="E2_1" arrivalPos="100.88" arrivalPosLat="0.00" arrivalSpeed="8.84" duration="37.00" routeLength="214.82" waitingTime="3.00" waitingCount="1" stopTime="0.00" timeLoss="12.14" rerouteNo="0" devices="tripinfo_-E1__0__motorbike.2 emissions_-E1__0__motorbike.2" vType="motorbike" speedFactor="0.82" vaporized="">
        <emissions CO_abs="423.73" CO2_abs="60632.03" HC_abs="792.88" PMx_abs="16.79" NOx_abs="44.96" fuel_abs="19660.57" electricity_abs="0.00"/>
    </tripinfo>
    <tripinfo id="-E6__0__motorbike.1" depart="2.00" departLane="-E6_2" departPos="2.10" departPosLat="0.00" departSpeed="0.00" departDelay="0.52" arrival="45.00" arrivalLane="E4_2" arrivalPos="100.65" arrivalPosLat="0.00" arrivalSpeed="10.11" duration="43.00" routeLength="234.81" waitingTime="9.00" waitingCount="1" stopTime="0.00" timeLoss="19.73" rerouteNo="0" devices="tripinfo_-E6__0__motorbike.1 emissions_-E6__0__motorbike.1" vType="motorbike" speedFactor="0.92" vaporized="">
        <emissions CO_abs="552.11" CO2_abs="70521.90" HC_abs="925.48" PMx_abs="19.54" NOx_abs="53.36" fuel_abs="22867.47" electricity_abs="0.00"/>
    </tripinfo>
    <tripinfo id="-E6__0__motorbike.2" depart="3.00" departLane="-E6_3" departPos="2.10" departPosLat="0.00" departSpeed="0.00" departDelay="0.69" arrival="46.00" arrivalLane="E4_2" arrivalPos="100.65" arrivalPosLat="-1.15" arrivalSpeed="9.87" duration="43.00" routeLength="234.81" waitingTime="3.00" waitingCount="2" stopTime="0.00" timeLoss="19.61" rerouteNo="0" devices="tripinfo_-E6__0__motorbike.2 emissions_-E6__0__motorbike.2" vType="motorbike" speedFactor="0.94" vaporized="">
        <emissions CO_abs="565.13" CO2_abs="74988.25" HC_abs="977.34" PMx_abs="20.43" NOx_abs="55.95" fuel_abs="24315.69" electricity_abs="0.00"/>
    </tripinfo>
    <tripinfo id="-E1__0__motorbike.4" depart="16.00" departLane="-E1_2" departPos="2.10" departPosLat="0.00" departSpeed="0.00" departDelay="4.97" arrival="46.00" arrivalLane="E2_1" arrivalPos="100.88" arrivalPosLat="0.00" arrivalSpeed="10.81" duration="30.00" routeLength="214.82" waitingTime="0.00" waitingCount="0" stopTime="0.00" timeLoss="9.92" rerouteNo="0" devices="tripinfo_-E1__0__motorbike.4 emissions_-E1__0__motorbike.4" vType="motorbike" speedFactor="1.14" vaporized="">
        <emissions CO_abs="523.32" CO2_abs="47332.95" HC_abs="582.30" PMx_abs="12.53" NOx_abs="41.79" fuel_abs="15348.12" electricity_abs="0.00"/>
    </tripinfo>
    <tripinfo id="-E6__0__motorbike.0" depart="1.00" departLane="-E6_3" departPos="2.10" departPosLat="0.00" departSpeed="0.00" departDelay="0.98" arrival="47.00" arrivalLane="E1_2" arrivalPos="107.01" arrivalPosLat="0.00" arrivalSpeed="10.55" duration="46.00" routeLength="406.07" waitingTime="0.00" waitingCount="0" stopTime="0.00" timeLoss="8.48" rerouteNo="0" devices="tripinfo_-E6__0__motorbike.0 emissions_-E6__0__motorbike.0" vType="motorbike" speedFactor="1.03" vaporized="">
        <emissions CO_abs="979.44" CO2_abs="64760.88" HC_abs="822.99" PMx_abs="17.56" NOx_abs="63.51" fuel_abs="20999.35" electricity_abs="0.00"/>
    </tripinfo>
    <tripinfo id="-E5__0__motorbike.0" depart="9.00" departLane="-E5_2" departPos="2.10" departPosLat="0.00" departSpeed="0.00" departDelay="0.54" arrival="47.00" arrivalLane="E6_1" arrivalPos="109.06" arrivalPosLat="0.00" arrivalSpeed="10.02" duration="38.00" routeLength="262.07" waitingTime="1.00" waitingCount="1" stopTime="0.00" timeLoss="11.46" rerouteNo="0" devices="tripinfo_-E5__0__motorbike.0 emissions_-E5__0__motorbike.0" vType="motorbike" speedFactor="0.94" vaporized="">
        <emissions CO_abs="642.51" CO2_abs="63141.62" HC_abs="807.95" PMx_abs="17.06" NOx_abs="52.96" fuel_abs="20474.28" electricity_abs="0.00"/>
    </tripinfo>
    <tripinfo id="-E5__0__motorbike.1" depart="15.00" departLane="-E5_3" departPos="2.10" departPosLat="0.00" departSpeed="0.00" departDelay="0.64" arrival="47.00" arrivalLane="E6_1" arrivalPos="109.06" arrivalPosLat="1.15" arrivalSpeed="10.36" duration="32.00" routeLength="262.07" waitingTime="0.00" waitingCount="0" stopTime="0.00" timeLoss="7.59" rerouteNo="0" devices="tripinfo_-E5__0__motorbike.1 emissions_-E5__0__motorbike.1" vType="motorbike" speedFactor="1.15" vaporized="">
        <emissions CO_abs="727.22" CO2_abs="53523.60" HC_abs="663.65" PMx_abs="14.24" NOx_abs="50.58" fuel_abs="17355.51" electricity_abs="0.00"/>
    </tripinfo>
    <tripinfo id="E0__0__motorbike.6" depart="24.00" departLane="E0_2" departPos="2.10" departPosLat="0.00" departSpeed="0.00" departDelay="0.84" arrival="48.00" arrivalLane="E1_1" arrivalPos="107.01" arrivalPosLat="0.00" arrivalSpeed="10.43" duration="24.00" routeLength="190.74" waitingTime="0.00" waitingCount="0" stopTime="0.00" timeLoss="6.05" rerouteNo="0" devices="tripinfo_E0__0__motorbike.6 emissions_E0__0__motorbike.6" vType="motorbike" speedFactor="1.07" vaporized="">
        <emissions CO_abs="466.35" CO2_abs="37535.75" HC_abs="453.28" PMx_abs="9.70" NOx_abs="35.11" fuel_abs="12171.26" electricity_abs="0.00"/>
    </tripinfo>
    <tripinfo id="-E2__0__motorbike.1" depart="5.00" departLane="-E2_1" departPos="2.10" departPosLat="0.00" departSpeed="0.00" departDelay="0.84" arrival="50.00" arrivalLane="E4_1" arrivalPos="100.65" arrivalPosLat="0.00" arrivalSpeed="10.10" duration="45.00" routeLength="373.36" waitingTime="0.00" waitingCount="0" stopTime="0.00" timeLoss="8.76" rerouteNo="0" devices="tripinfo_-E2__0__motorbike.1 emissions_-E2__0__motorbike.1" vType="motorbike" speedFactor="0.97" vaporized="">
        <emissions CO_abs="931.82" CO2_abs="70462.47" HC_abs="903.13" PMx_abs="19.26" NOx_abs="66.28" fuel_abs="22848.16" electricity_abs="0.00"/>
    </tripinfo>
    <tripinfo id="-E4__0__car.3" depart="13.00" departLane="-E4_2" departPos="4.60" departPosLat="0.00" departSpeed="0.00" departDelay="0.59" arrival="50.00" arrivalLane="E5_1" arrivalPos="146.08" arrivalPosLat="0.00" arrivalSpeed="10.76" duration="37.00" routeLength="251.16" waitingTime="1.00" waitingCount="1" stopTime="0.00" timeLoss="13.73" rerouteNo="0" devices="tripinfo_-E4__0__car.3 emissions_-E4__0__car.3" vType="car" speedFactor="1.01" vaporized="">
        <emissions CO_abs="227.40" CO2_abs="87483.94" HC_abs="1.51" PMx_abs="6.12" NOx_abs="28.26" fuel_abs="28361.08" electricity_abs="0.00"/>
    </tripinfo>
    <tripinfo id="-E5__0__motorbike.2" depart="17.00" departLane="-E5_2" departPos="2.10" departPosLat="0.00" departSpeed="0.00" departDelay="0.74" arrival="50.00" arrivalLane="E6_1" arrivalPos="109.06" arrivalPosLat="0.00" arrivalSpeed="10.53" duration="33.00" routeLength="262.07" waitingTime="0.00" waitingCount="0" stopTime="0.00" timeLoss="8.31" rerouteNo="0" devices="tripinfo_-E5__0__motorbike.2 emissions_-E5__0__motorbike.2" vType="motorbike" speedFactor="1.11" vaporized="">
        <emissions CO_abs="677.71" CO2_abs="52923.01" HC_abs="662.19" PMx_abs="14.19" NOx_abs="49.11" fuel_abs="17160.78" electricity_abs="0.00"/>
    </tripinfo>
    <tripinfo id="-E1__0__motorbike.3" depart="12.00" departLane="-E1_3" departPos="2.10" departPosLat="0.00" departSpeed="0.00" departDelay="1.12" arrival="51.00" arrivalLane="E2_1" arrivalPos="100.88" arrivalPosLat="0.00" arrivalSpeed="10.68" duration="39.00" routeLength="214.82" waitingTime="1.00" waitingCount="1" stopTime="0.00" timeLoss="18.99" rerouteNo="0" devices="tripinfo_-E1__0__motorbike.3 emissions_-E1__0__motorbike.3" vType="motorbike" speedFactor="1.02" vaporized="">
        <emissions CO_abs="552.69" CO2_abs="70295.61" HC_abs="888.51" PMx_abs="18.73" NOx_abs="53.93" fuel_abs="22793.96" electricity_abs="0.00"/>
    </tripinfo>
    <tripinfo id="-E4__0__motorbike.3" depart="12.00" departLane="-E4_3" departPos="2.10" departPosLat="0.00" departSpeed="0.00" departDelay="0.74" arrival="52.00" arrivalLane="E5_1" arrivalPos="146.08" arrivalPosLat="1.20" arrivalSpeed="8.09" duration="40.00" routeLength="253.66" waitingTime="0.00" waitingCount="0" stopTime="0.00" timeLoss="10.08" rerouteNo="0" devices="tripinfo_-E4__0__motorbike.3 emissions_-E4__0__motorbike.3" vType="motorbike" speedFactor="0.79" vaporized="">
        <emissions CO_abs="402.72" CO2_abs="56205.07" HC_abs="698.76" PMx_abs="15.29" NOx_abs="42.27" fuel_abs="18225.05" electricity_abs="0.00"/>
    </tripinfo>
    <tripinfo id="-E5__0__car.3" depart="20.00" departLane="-E5_3" departPos="4.60" departPosLat="0.00" departSpeed="0.00" departDelay="2.14" arrival="52.00" arrivalLane="E6_1" arrivalPos="109.06" arrivalPosLat="0.00" arrivalSpeed="10.50" duration="32.00" routeLength="259.57" waitingTime="0.00" waitingCount="0" stopTime="0.00" timeLoss="7.41" rerouteNo="0" devices="tripinfo_-E5__0__car.3 emissions_-E5__0__car.3" vType="car" speedFactor="1.05" vaporized="">
        <emissions CO_abs="252.92" CO2_abs="76238.19" HC_abs="1.68" PMx_abs="6.12" NOx_abs="24.70" fuel_abs="24715.34" electricity_abs="0.00"/>
    </tripinfo>
    <tripinfo id="-E6__0__motorbike.5" depart="22.00" departLane="-E6_3" departPos="2.10" departPosLat="0.00" departSpeed="0.00" departDelay="2.60" arrival="53.00" arrivalLane="E5_3" arrivalPos="146.08" arrivalPosLat="0.00" arrivalSpeed="10.89" duration="31.00" routeLength="277.55" waitingTime="0.00" waitingCount="0" stopTime="0.00" timeLoss="5.68" rerouteNo="0" devices="tripinfo_-E6__0__motorbike.5 emissions_-E6__0__motorbike.5" vType="motorbike" speedFactor="1.00" vaporized="">
        <emissions CO_abs="715.91" CO2_abs="47307.42" HC_abs="600.84" PMx_abs="12.84" NOx_abs="45.86" fuel_abs="15339.90" electricity_abs="0.00"/>
    </tripinfo>
    <tripinfo id="-E2__0__motorbike.2" depart="6.00" departLane="-E2_3" departPos="2.10" departPosLat="0.00" departSpeed="0.00" departDelay="0.32" arrival="55.00" arrivalLane="E4_1" arrivalPos="100.65" arrivalPosLat="0.00" arrivalSpeed="10.68" duration="49.00" routeLength="373.36" waitingTime="0.00" waitingCount="0" stopTime="0.00" timeLoss="14.11" rerouteNo="0" devices="tripinfo_-E2__0__motorbike.2 emissions_-E2__0__motorbike.2" vType="motorbike" speedFactor="1.08" vaporized="">
        <emissions CO_abs="945.76" CO2_abs="75112.76" HC_abs="959.27" PMx_abs="20.42" NOx_abs="69.05" fuel_abs="24356.00" electricity_abs="0.00"/>
    </tripinfo>
    <tripinfo id="-E6__0__car.1" depart="10.00" departLane="-E6_1" departPos="4.60" departPosLat="0.00" departSpeed="0.00" departDelay="0.41" arrival="55.00" arrivalLane="-E0_1" arrivalPos="76.80" arrivalPosLat="0.00" arrivalSpeed="9.93" duration="45.00" routeLength="355.19" waitingTime="0.00" waitingCount="0" stopTime="0.00" timeLoss="9.52" rerouteNo="0" devices="tripinfo_-E6__0__car.1 emissions_-E6__0__car.1" vType="car" speedFactor="0.94" vaporized="">
        <emissions CO_abs="300.60" CO2_abs="101433.36" HC_abs="2.00" PMx_abs="8.01" NOx_abs="33.00" fuel_abs="32883.30" electricity_abs="0.00"/>
    </tripinfo>
    <tripinfo id="-E1__0__motorbike.7" depart="18.00" departLane="-E1_2" departPos="2.10" departPosLat="0.00" departSpeed="0.00" departDelay="0.63" arrival="55.00" arrivalLane="E2_1" arrivalPos="100.88" arrivalPosLat="0.00" arrivalSpeed="10.48" duration="37.00" routeLength="214.82" waitingTime="1.00" waitingCount="1" stopTime="0.00" timeLoss="15.77" rerouteNo="0" devices="tripinfo_-E1__0__motorbike.7 emissions_-E1__0__motorbike.7" vType="motorbike" speedFactor="0.95" vaporized="">
        <emissions CO_abs="529.69" CO2_abs="64156.69" HC_abs="788.93" PMx_abs="16.84" NOx_abs="50.66" fuel_abs="20803.36" electricity_abs="0.00"/>
    </tripinfo>
    <tripinfo id="-E4__0__car.5" depart="19.00" departLane="-E4_2" departPos="4.60" departPosLat="0.00" departSpeed="0.00" departDelay="2.54" arrival="56.00" arrivalLane="E5_1" arrivalPos="146.08" arrivalPosLat="0.00" arrivalSpeed="10.63" duration="37.00" routeLength="251.16" waitingTime="0.00" waitingCount="0" stopTime="0.00" timeLoss="13.37" rerouteNo="0" devices="tripinfo_-E4__0__car.5 emissions_-E4__0__car.5" vType="car" speedFactor="0.99" vaporized="">
        <emissions CO_abs="241.42" CO2_abs="84591.22" HC_abs="1.60" PMx_abs="5.92" NOx_abs="27.25" fuel_abs="27423.26" electricity_abs="0.00"/>
    </tripinfo>
    <tripinfo id="-E6__0__motorbike.6" depart="25.00" departLane="-E6_1" departPos="2.10" departPosLat="0.00" departSpeed="0.00" departDelay="1.62" arrival="56.00" arrivalLane="E4_2" arrivalPos="100.65" arrivalPosLat="0.00" arrivalSpeed="8.98" duration="31.00" routeLength="234.81" waitingTime="0.00" waitingCount="0" stopTime="0.00" timeLoss="4.31" rerouteNo="0" devices="tripinfo_-E6__0__motorbike.6 emissions_-E6__0__motorbike.6" vType="motorbike" speedFactor="0.81" vaporized="">
        <emissions CO_abs="386.38" CO2_abs="41305.79" HC_abs="549.02" PMx_abs="11.90" NOx_abs="32.99" fuel_abs="13393.90" electricity_abs="0.00"/>
    </tripinfo>
    <tripinfo id="-E6__0__car.0" depart="6.00" departLane="-E6_3" departPos="4.60" departPosLat="0.00" departSpeed="0.00" departDelay="0.59" arrival="57.00" arrivalLane="E2_3" arrivalPos="100.88" arrivalPosLat="0.00" arrivalSpeed="10.75" duration="51.00" routeLength="394.75" waitingTime="0.00" waitingCount="0" stopTime="0.00" timeLoss="13.00" rerouteNo="0" devices="tripinfo_-E6__0__car.0 emissions_-E6__0__car.0" vType="car" speedFactor="0.98" vaporized="">
        <emissions CO_abs="388.15" CO2_abs="125373.94" HC_abs="2.58" PMx_abs="10.01" NOx_abs="40.51" fuel_abs="40644.47" electricity_abs="0.00"/>
    </tripinfo>
    <tripinfo id="-E1__0__car.2" depart="21.00" departLane="-E1_3" departPos="4.60" departPosLat="0.00" departSpeed="0.00" departDelay="1.72" arrival="57.00" arrivalLane="E2_1" arrivalPos="100.88" arrivalPosLat="0.00" arrivalSpeed="10.52" duration="36.00" routeLength="212.32" waitingTime="0.00" waitingCount="0" stopTime="0.00" timeLoss="16.51" rerouteNo="0" devices="tripinfo_-E1__0__car.2 emissions_-E1__0__car.2" vType="car" speedFactor="1.27" vaporized="">
        <emissions CO_abs="193.31" CO2_abs="84197.11" HC_abs="1.28" PMx_abs="4.87" NOx_abs="25.93" fuel_abs="27295.36" electricity_abs="0.00"/>
    </tripinfo>
    <tripinfo id="-E6__0__motorbike.7" depart="27.00" departLane="-E6_1" departPos="2.10" departPosLat="0.00" departSpeed="0.00" departDelay="1.15" arrival="57.00" arrivalLane="E4_2" arrivalPos="100.65" arrivalPosLat="0.00" arrivalSpeed="9.85" duration="30.00" routeLength="234.81" waitingTime="0.00" waitingCount="0" stopTime="0.00" timeLoss="6.17" rerouteNo="0" devices="tripinfo_-E6__0__motorbike.7 emissions_-E6__0__motorbike.7" vType="motorbike" speedFactor="0.90" vaporized="">
        <emissions CO_abs="457.44" CO2_abs="42004.95" HC_abs="539.03" PMx_abs="11.61" NOx_abs="36.39" fuel_abs="13620.54" electricity_abs="0.00"/>
    </tripinfo>
    <tripinfo id="-E6__0__motorbike.3" depart="10.00" departLane="-E6_2" departPos="2.10" departPosLat="0.00" departSpeed="0.00" departDelay="0.41" arrival="58.00" arrivalLane="E1_2" arrivalPos="107.01" arrivalPosLat="0.00" arrivalSpeed="10.73" duration="48.00" routeLength="406.07" waitingTime="0.00" waitingCount="0" stopTime="0.00" timeLoss="10.46" rerouteNo="0" devices="tripinfo_-E6__0__motorbike.3 emissions_-E6__0__motorbike.3" vType="motorbike" speedFactor="1.02" vaporized="">
        <emissions CO_abs="897.82" CO2_abs="64733.33" HC_abs="805.97" PMx_abs="17.21" NOx_abs="62.13" fuel_abs="20990.37" electricity_abs="0.00"/>
    </tripinfo>
    <tripinfo id="-E5__0__motorbike.3" depart="25.00" departLane="-E5_3" departPos="2.10" departPosLat="0.00" departSpeed="0.00" departDelay="0.31" arrival="58.00" arrivalLane="E6_1" arrivalPos="109.06" arrivalPosLat="0.00" arrivalSpeed="11.06" duration="33.00" routeLength="262.07" waitingTime="0.00" waitingCount="0" stopTime="0.00" timeLoss="8.71" rerouteNo="0" devices="tripinfo_-E5__0__motorbike.3 emissions_-E5__0__motorbike.3" vType="motorbike" speedFactor="1.02" vaporized="">
        <emissions CO_abs="696.37" CO2_abs="53072.98" HC_abs="642.66" PMx_abs="13.84" NOx_abs="49.54" fuel_abs="17209.36" electricity_abs="0.00"/>
    </tripinfo>
    <tripinfo id="-E1__0__motorbike.8" depart="23.00" departLane="-E1_2" departPos="2.10" departPosLat="0.00" departSpeed="0.00" departDelay="2.68" arrival="59.00" arrivalLane="E2_1" arrivalPos="100.88" arrivalPosLat="-0.45" arrivalSpeed="10.76" duration="36.00" routeLength="214.82" waitingTime="1.00" waitingCount="1" stopTime="0.00" timeLoss="15.62" rerouteNo="0" devices="tripinfo_-E1__0__motorbike.8 emissions_-E1__0__motorbike.8" vType="motorbike" speedFactor="1.04" vaporized="">
        <emissions CO_abs="498.00" CO2_abs="60773.06" HC_abs="758.07" PMx_abs="16.11" NOx_abs="47.65" fuel_abs="19706.21" electricity_abs="0.00"/>
    </tripinfo>
    <tripinfo id="-E1__0__motorbike.10" depart="27.00" departLane="-E1_2" departPos="2.10" departPosLat="0.00" departSpeed="0.00" departDelay="0.30" arrival="59.00" arrivalLane="E2_1" arrivalPos="100.88" arrivalPosLat="1.05" arrivalSpeed="10.98" duration="32.00" routeLength="214.82" waitingTime="0.00" waitingCount="0" stopTime="0.00" timeLoss="11.60" rerouteNo="0" devices="tripinfo_-E1__0__motorbike.10 emissions_-E1__0__motorbike.10" vType="motorbike" speedFactor="1.12" vaporized="">
        <emissions CO_abs="593.32" CO2_abs="56650.66" HC_abs="694.58" PMx_abs="14.96" NOx_abs="49.56" fuel_abs="18369.47" electricity_abs="0.00"/>
    </tripinfo>
    <tripinfo id="-E6__0__car.4" depart="31.00" departLane="-E6_1" departPos="4.60" departPosLat="0.00" departSpeed="0.00" departDelay="0.85" arrival="59.00" arrivalLane="E4_2" arrivalPos="100.65" arrivalPosLat="0.00" arrivalSpeed="10.38" duration="28.00" routeLength="232.31" waitingTime="0.00" waitingCount="0" stopTime="0.00" timeLoss="6.63" rerouteNo="0" devices="tripinfo_-E6__0__car.4 emissions_-E6__0__car.4" vType="car" speedFactor="1.11" vaporized="">
        <emissions CO_abs="205.98" CO2_abs="58501.30" HC_abs="1.37" PMx_abs="4.25" NOx_abs="18.76" fuel_abs="18965.25" electricity_abs="0.00"/>
    </tripinfo>
    <tripinfo id="-E6__0__car.2" depart="17.00" departLane="-E6_1" departPos="4.60" departPosLat="0.00" departSpeed="0.00" departDelay="0.39" arrival="60.00" arrivalLane="-E0_1" arrivalPos="76.80" arrivalPosLat="0.00" arrivalSpeed="10.56" duration="43.00" routeLength="355.19" waitingTime="0.00" waitingCount="0" stopTime="0.00" timeLoss="8.76" rerouteNo="0" devices="tripinfo_-E6__0__car.2 emissions_-E6__0__car.2" vType="car" speedFactor="0.98" vaporized="">
        <emissions CO_abs="340.81" CO2_abs="104469.93" HC_abs="2.27" PMx_abs="8.75" NOx_abs="34.06" fuel_abs="33867.71" electricity_abs="0.00"/>
    </tripinfo>