<?xml version="1.0" encoding="UTF-8"?>

<!-- generated on 2025-12-22 09:33:45 by Eclipse SUMO GUI Version 1.24.0
<sumoConfiguration xmlns:xsi="http://www.w3.org/2001/XMLSchema-instance" xsi:noNamespaceSchemaLocation="http://sumo.dlr.de/xsd/sumoConfiguration.xsd">

    <input>
        <net-file value="Scenario/test/env/test.net.xml"/>
        <route-files value="Scenario/test/env/../routes/vehicle.rou.xml"/>
        <additional-files value="Scenario/test/env/../add/tls.add.xml,Scenario/test/env/ ../add/e2.add.xml"/>
    </input>

    <output>
        <tripinfo-output value="deploy.log.monitor.tripinfo.xml"/>
        <tripinfo-output.write-unfinished value="true"/>
    </output>

    <time>
        <begin value="0"/>
        <end value="500"/>
        <step-length value="1.0"/>
    </time>

    <processing>
        <lateral-resolution value="0.2"/>
        <time-to-teleport value="-1"/>
        <waiting-time-memory value="10000"/>
        <max-depart-delay value="100000"/>
    </processing>

    <report>
        <no-warnings value="true"/>
        <no-step-log value="true"/>
    </report>

    <emissions>
        <device.emissions.probability value="1.0"/>
    </emissions>

    <traci_server>
        <remote-port value="32929"/>
    </traci_server>

    <random_number>
        <random value="true"/>
    </random_number>

    <gui_only>
        <quit-on-end value="true"/>
        <start value="true"/>
    </gui_only>

</sumoConfiguration>
-->

<tripinfos xmlns:xsi="http://www.w3.org/2001/XMLSchema-instance" xsi:noNamespaceSchemaLocation="http://sumo.dlr.de/xsd/tripinfo_file.xsd">
    <tripinfo id="-E6__0__car.0" depart="2.00" departLane="-E6_1" departPos="4.60" departPosLat="0.00" departSpeed="0.00" departDelay="0.46" arrival="31.00" arrivalLane="E4_2" arrivalPos="100.65" arrivalPosLat="0.00" arrivalSpeed="9.00" duration="29.00" routeLength="232.31" waitingTime="0.00" waitingCount="0" stopTime="0.00" timeLoss="4.71" rerouteNo="0" devices="tripinfo_-E6__0__car.0 emissions_-E6__0__car.0" vType="car" speedFactor="0.86" vaporized="">
        <emissions CO_abs="115.68" CO2_abs="59780.63" HC_abs="0.78" PMx_abs="5.77" NOx_abs="20.08" fuel_abs="19380.16" electricity_abs="0.00"/>
    </tripinfo>
    <tripinfo id="-E1__0__car.0" depart="4.00" departLane="-E1_3" departPos="4.60" departPosLat="0.00" departSpeed="0.00" departDelay="0.42" arrival="31.00" arrivalLane="E2_1" arrivalPos="100.88" arrivalPosLat="0.00" arrivalSpeed="10.45" duration="27.00" routeLength="212.32" waitingTime="0.00" waitingCount="0" stopTime="0.00" timeLoss="7.39" rerouteNo="0" devices="tripinfo_-E1__0__car.0 emissions_-E1__0__car.0" vType="car" speedFactor="1.26" vaporized="">
        <emissions CO_abs="230.19" CO2_abs="72482.40" HC_abs="1.53" PMx_abs="5.32" NOx_abs="23.05" fuel_abs="23497.71" electricity_abs="0.00"/>
    </tripinfo>
    <tripinfo id="-E5__0__motorbike.0" depart="1.00" departLane="-E5_3" departPos="2.10" departPosLat="0.00" departSpeed="0.00" departDelay="0.97" arrival="35.00" arrivalLane="E6_1" arrivalPos="109.06" arrivalPosLat="0.00" arrivalSpeed="8.95" duration="34.00" routeLength="262.07" waitingTime="0.00" waitingCount="0" stopTime="0.00" timeLoss="5.81" rerouteNo="0" devices="tripinfo_-E5__0__motorbike.0 emissions_-E5__0__motorbike.0" vType="motorbike" speedFactor="0.87" vaporized="">
        <emissions CO_abs="417.93" CO2_abs="42162.72" HC_abs="537.83" PMx_abs="11.63" NOx_abs="35.27" fuel_abs="13671.70" electricity_abs="0.00"/>
    </tripinfo>
    <tripinfo id="E0__0__motorbike.1" depart="8.00" departLane="E0_1" departPos="2.10" departPosLat="0.00" departSpeed="0.00" departDelay="0.05" arrival="36.00" arrivalLane="E2_2" arrivalPos="100.88" arrivalPosLat="0.00" arrivalSpeed="10.58" duration="28.00" routeLength="202.78" waitingTime="0.00" waitingCount="0" stopTime="0.00" timeLoss="9.54" rerouteNo="0" devices="tripinfo_E0__0__motorbike.1 emissions_E0__0__motorbike.1" vType="motorbike" speedFactor="1.09" vaporized="">
        <emissions CO_abs="542.94" CO2_abs="50351.69" HC_abs="608.31" PMx_abs="13.21" NOx_abs="43.39" fuel_abs="16326.96" electricity_abs="0.00"/>
    </tripinfo>
    <tripinfo id="-E4__0__car.0" depart="5.00" departLane="-E4_3" departPos="4.60" departPosLat="0.00" departSpeed="0.00" departDelay="0.84" arrival="37.00" arrivalLane="E5_1" arrivalPos="146.08" arrivalPosLat="0.00" arrivalSpeed="10.44" duration="32.00" routeLength="251.16" waitingTime="0.00" waitingCount="0" stopTime="0.00" timeLoss="8.06" rerouteNo="0" devices="tripinfo_-E4__0__car.0 emissions_-E4__0__car.0" vType="car" speedFactor="1.04" vaporized="">
        <emissions CO_abs="241.28" CO2_abs="80498.52" HC_abs="1.61" PMx_abs="6.66" NOx_abs="26.16" fuel_abs="26096.50" electricity_abs="0.00"/>
    </tripinfo>
    <tripinfo id="-E4__0__motorbike.1" depart="7.00" departLane="-E4_3" departPos="2.10" departPosLat="0.00" departSpeed="0.00" departDelay="1.32" arrival="38.00" arrivalLane="E5_1" arrivalPos="146.08" arrivalPosLat="0.00" arrivalSpeed="10.40" duration="31.00" routeLength="253.66" waitingTime="0.00" waitingCount="0" stopTime="0.00" timeLoss="7.34" rerouteNo="0" devices="tripinfo_-E4__0__motorbike.1 emissions_-E4__0__motorbike.1" vType="motorbike" speedFactor="1.09" vaporized="">
        <emissions CO_abs="634.06" CO2_abs="48536.80" HC_abs="607.09" PMx_abs="12.99" NOx_abs="45.25" fuel_abs="15738.51" electricity_abs="0.00"/>
    </tripinfo>
    <tripinfo id="-E1__0__motorbike.0" depart="11.00" departLane="-E1_2" departPos="2.10" departPosLat="0.00" departSpeed="0.00" departDelay="0.12" arrival="38.00" arrivalLane="E2_1" arrivalPos="100.88" arrivalPosLat="0.00" arrivalSpeed="10.61" duration="27.00" routeLength="214.82" waitingTime="0.00" waitingCount="0" stopTime="0.00" timeLoss="6.92" rerouteNo="0" devices="tripinfo_-E1__0__motorbike.0 emissions_-E1__0__motorbike.0" vType="motorbike" speedFactor="1.11" vaporized="">
        <emissions CO_abs="640.41" CO2_abs="50321.71" HC_abs="631.16" PMx_abs="13.56" NOx_abs="46.36" fuel_abs="16317.29" electricity_abs="0.00"/>
    </tripinfo>
    <tripinfo id="-E6__0__car.1" depart="4.00" departLane="-E6_2" departPos="4.60" departPosLat="0.00" departSpeed="0.00" departDelay="0.57" arrival="46.00" arrivalLane="-E0_1" arrivalPos="76.80" arrivalPosLat="0.00" arrivalSpeed="10.60" duration="42.00" routeLength="355.19" waitingTime="0.00" waitingCount="0" stopTime="0.00" timeLoss="7.94" rerouteNo="0" devices="tripinfo_-E6__0__car.1 emissions_-E6__0__car.1" vType="car" speedFactor="1.12" vaporized="">
        <emissions CO_abs="321.63" CO2_abs="101249.33" HC_abs="2.15" PMx_abs="9.24" NOx_abs="33.51" fuel_abs="32823.70" electricity_abs="0.00"/>
    </tripinfo>
    <tripinfo id="-E1__0__car.1" depart="19.00" departLane="-E1_1" departPos="4.60" departPosLat="0.00" departSpeed="0.00" departDelay="1.63" arrival="46.00" arrivalLane="E2_1" arrivalPos="100.88" arrivalPosLat="0.00" arrivalSpeed="10.77" duration="27.00" routeLength="212.32" waitingTime="0.00" waitingCount="0" stopTime="0.00" timeLoss="7.19" rerouteNo="0" devices="tripinfo_-E1__0__car.1 emissions_-E1__0__car.1" vType="car" speedFactor="1.12" vaporized="">
        <emissions CO_abs="224.57" CO2_abs="70241.64" HC_abs="1.49" PMx_abs="5.40" NOx_abs="22.60" fuel_abs="22771.33" electricity_abs="0.00"/>
    </tripinfo>
    <tripinfo id="-E4__0__motorbike.2" depart="16.00" departLane="-E4_2" departPos="2.10" departPosLat="0.00" departSpeed="0.00" departDelay="0.32" arrival="47.00" arrivalLane="E5_1" arrivalPos="146.08" arrivalPosLat="0.00" arrivalSpeed="10.68" duration="31.00" routeLength="253.66" waitingTime="0.00" waitingCount="0" stopTime="0.00" timeLoss="7.31" rerouteNo="0" devices="tripinfo_-E4__0__motorbike.2 emissions_-E4__0__motorbike.2" vType="motorbike" speedFactor="1.08" vaporized="">
        <emissions CO_abs="655.40" CO2_abs="50095.44" HC_abs="630.78" PMx_abs="13.52" NOx_abs="46.47" fuel_abs="16243.93" electricity_abs="0.00"/>
    </tripinfo>
    <tripinfo id="-E5__0__car.2" depart="16.00" departLane="-E5_1" departPos="4.60" departPosLat="0.00" departSpeed="0.00" departDelay="0.92" arrival="48.00" arrivalLane="E6_1" arrivalPos="109.06" arrivalPosLat="0.00" arrivalSpeed="10.98" duration="32.00" routeLength="259.57" waitingTime="0.00" waitingCount="0" stopTime="0.00" timeLoss="7.45" rerouteNo="0" devices="tripinfo_-E5__0__car.2 emissions_-E5__0__car.2" vType="car" speedFactor="1.18" vaporized="">
        <emissions CO_abs="260.30" CO2_abs="79508.90" HC_abs="1.73" PMx_abs="6.55" NOx_abs="26.03" fuel_abs="25775.69" electricity_abs="0.00"/>
    </tripinfo>
    <tripinfo id="-E4__0__motorbike.3" depart="17.00" departLane="-E4_3" departPos="2.10" departPosLat="0.00" departSpeed="0.00" departDelay="0.25" arrival="49.00" arrivalLane="E5_2" arrivalPos="146.08" arrivalPosLat="0.00" arrivalSpeed="10.52" duration="32.00" routeLength="253.66" waitingTime="0.00" waitingCount="0" stopTime="0.00" timeLoss="8.71" rerouteNo="0" devices="tripinfo_-E4__0__motorbike.3 emissions_-E4__0__motorbike.3" vType="motorbike" speedFactor="1.16" vaporized="">
        <emissions CO_abs="624.77" CO2_abs="51770.06" HC_abs="639.02" PMx_abs="13.71" NOx_abs="47.32" fuel_abs="16786.90" electricity_abs="0.00"/>
    </tripinfo>
    <tripinfo id="-E1__0__motorbike.1" depart="16.00" departLane="-E1_3" departPos="2.10" departPosLat="0.00" departSpeed="0.00" departDelay="0.07" arrival="52.00" arrivalLane="-E0_3" arrivalPos="76.80" arrivalPosLat="0.00" arrivalSpeed="10.52" duration="36.00" routeLength="206.22" waitingTime="6.00" waitingCount="1" stopTime="0.00" timeLoss="17.13" rerouteNo="0" devices="tripinfo_-E1__0__motorbike.1 emissions_-E1__0__motorbike.1" vType="motorbike" speedFactor="1.03" vaporized="">
        <emissions CO_abs="524.90" CO2_abs="60427.16" HC_abs="795.02" PMx_abs="16.73" NOx_abs="46.93" fuel_abs="19594.14" electricity_abs="0.00"/>
    </tripinfo>
    <tripinfo id="-E4__0__car.1" depart="24.00" departLane="-E4_2" departPos="4.60" departPosLat="0.00" departSpeed="0.00" departDelay="0.65" arrival="54.00" arrivalLane="E6_2" arrivalPos="109.06" arrivalPosLat="0.00" arrivalSpeed="9.00" duration="30.00" routeLength="232.31" waitingTime="0.00" waitingCount="0" stopTime="0.00" timeLoss="5.48" rerouteNo="0" devices="tripinfo_-E4__0__car.1 emissions_-E4__0__car.1" vType="car" speedFactor="0.87" vaporized="">
        <emissions CO_abs="117.29" CO2_abs="62689.80" HC_abs="0.79" PMx_abs="6.12" NOx_abs="21.23" fuel_abs="20323.30" electricity_abs="0.00"/>
    </tripinfo>
    <tripinfo id="E0__0__car.0" depart="29.00" departLane="E0_1" departPos="4.60" departPosLat="0.00" departSpeed="0.00" departDelay="2.60" arrival="54.00" arrivalLane="E1_1" arrivalPos="107.01" arrivalPosLat="0.00" arrivalSpeed="10.81" duration="25.00" routeLength="188.24" waitingTime="0.00" waitingCount="0" stopTime="0.00" timeLoss="6.73" rerouteNo="0" devices="tripinfo_E0__0__car.0 emissions_E0__0__car.0" vType="car" speedFactor="0.99" vaporized="">
        <emissions CO_abs="200.91" CO2_abs="66165.33" HC_abs="1.33" PMx_abs="4.89" NOx_abs="21.28" fuel_abs="21449.84" electricity_abs="0.00"/>
    </tripinfo>
    <tripinfo id="E0__0__motorbike.0" depart="6.00" departLane="E0_2" departPos="2.10" departPosLat="0.00" departSpeed="0.00" departDelay="0.01" arrival="56.00" arrivalLane="E4_1" arrivalPos="100.65" arrivalPosLat="0.00" arrivalSpeed="10.61" duration="50.00" routeLength="364.76" waitingTime="0.00" waitingCount="0" stopTime="0.00" timeLoss="15.99" rerouteNo="0" devices="tripinfo_E0__0__motorbike.0 emissions_E0__0__motorbike.0" vType="motorbike" speedFactor="1.07" vaporized="">
        <emissions CO_abs="872.99" CO2_abs="77642.03" HC_abs="979.88" PMx_abs="21.06" NOx_abs="67.62" fuel_abs="25176.19" electricity_abs="0.00"/>
    </tripinfo>
    <tripinfo id="-E1__0__motorbike.2" depart="27.00" departLane="-E1_1" departPos="2.10" departPosLat="0.00" departSpeed="0.00" departDelay="0.30" arrival="56.00" arrivalLane="E2_1" arrivalPos="100.88" arrivalPosLat="0.00" arrivalSpeed="9.62" duration="29.00" routeLength="214.82" waitingTime="0.00" waitingCount="0" stopTime="0.00" timeLoss="6.01" rerouteNo="0" devices="tripinfo_-E1__0__motorbike.2 emissions_-E1__0__motorbike.2" vType="motorbike" speedFactor="0.87" vaporized="">
        <emissions CO_abs="463.85" CO2_abs="45901.60" HC_abs="590.37" PMx_abs="12.74" NOx_abs="38.59" fuel_abs="14884.08" electricity_abs="0.00"/>
    </tripinfo>
    <tripinfo id="-E1__0__car.2" depart="30.00" departLane="-E1_3" departPos="4.60" departPosLat="0.00" departSpeed="0.00" departDelay="1.21" arrival="56.00" arrivalLane="-E0_3" arrivalPos="76.80" arrivalPosLat="0.00" arrivalSpeed="11.06" duration="26.00" routeLength="203.72" waitingTime="0.00" waitingCount="0" stopTime="0.00" timeLoss="7.53" rerouteNo="0" devices="tripinfo_-E1__0__car.2 emissions_-E1__0__car.2" vType="car" speedFactor="1.09" vaporized="">
        <emissions CO_abs="227.77" CO2_abs="72567.98" HC_abs="1.52" PMx_abs="5.62" NOx_abs="23.37" fuel_abs="23525.49" electricity_abs="0.00"/>
    </tripinfo>
    <tripinfo id="E0__0__motorbike.5" depart="32.00" departLane="E0_2" departPos="2.10" departPosLat="0.00" departSpeed="0.00" departDelay="0.92" arrival="57.00" arrivalLane="E1_1" arrivalPos="107.01" arrivalPosLat="0.00" arrivalSpeed="10.79" duration="25.00" routeLength="190.74" waitingTime="0.00" waitingCount="0" stopTime="0.00" timeLoss="6.46" rerouteNo="0" devices="tripinfo_E0__0__motorbike.5 emissions_E0__0__motorbike.5" vType="motorbike" speedFactor="1.01" vaporized="">
        <emissions CO_abs="586.39" CO2_abs="45809.59" HC_abs="576.40" PMx_abs="12.36" NOx_abs="42.28" fuel_abs="14854.20" electricity_abs="0.00"/>
    </tripinfo>
    <tripinfo id="E0__0__motorbike.6" depart="34.00" departLane="E0_2" departPos="2.10" departPosLat="0.00" departSpeed="0.00" departDelay="0.34" arrival="61.00" arrivalLane="E1_1" arrivalPos="107.01" arrivalPosLat="0.00" arrivalSpeed="9.13" duration="27.00" routeLength="190.74" waitingTime="0.00" waitingCount="0" stopTime="0.00" timeLoss="6.33" rerouteNo="0" devices="tripinfo_E0__0__motorbike.6 emissions_E0__0__motorbike.6" vType="motorbike" speedFactor="0.89" vaporized="">
        <emissions CO_abs="455.08" CO2_abs="44591.28" HC_abs="567.36" PMx_abs="12.24" NOx_abs="37.80" fuel_abs="14459.18" electricity_abs="0.00"/>
    </tripinfo>
    <tripinfo id="-E6__0__car.2" depart="13.00" departLane="-E6_3" departPos="4.60" departPosLat="0.00" departSpeed="0.00" departDelay="0.59" arrival="62.00" arrivalLane="-E0_1" arrivalPos="76.80" arrivalPosLat="0.00" arrivalSpeed="8.97" duration="49.00" routeLength="355.19" waitingTime="0.00" waitingCount="0" stopTime="0.00" timeLoss="7.83" rerouteNo="0" devices="tripinfo_-E6__0__car.2 emissions_-E6__0__car.2" vType="car" speedFactor="0.82" vaporized="">
        <emissions CO_abs="228.43" CO2_abs="102705.11" HC_abs="1.52" PMx_abs="8.55" NOx_abs="34.10" fuel_abs="33295.71" electricity_abs="0.00"/>
    </tripinfo>
    <tripinfo id="-E6__0__motorbike.0" depart="16.00" departLane="-E6_3" departPos="2.10" departPosLat="0.00" departSpeed="0.00" departDelay="0.41" arrival="63.00" arrivalLane="-E0_1" arrivalPos="76.80" arrivalPosLat="0.00" arrivalSpeed="10.62" duration="47.00" routeLength="357.69" waitingTime="0.00" waitingCount="0" stopTime="0.00" timeLoss="12.69" rerouteNo="0" devices="tripinfo_-E6__0__motorbike.0 emissions_-E6__0__motorbike.0" vType="motorbike" speedFactor="0.98" vaporized="">
        <emissions CO_abs="830.77" CO2_abs="69616.39" HC_abs="865.59" PMx_abs="18.48" NOx_abs="64.47" fuel_abs="22573.73" electricity_abs="0.00"/>
    </tripinfo>
    <tripinfo id="-E5__0__motorbike.2" depart="31.00" departLane="-E5_1" departPos="2.10" departPosLat="0.00" departSpeed="0.00" departDelay="0.11" arrival="63.00" arrivalLane="E6_1" arrivalPos="109.06" arrivalPosLat="0.00" arrivalSpeed="10.36" duration="32.00" routeLength="262.07" waitingTime="0.00" waitingCount="0" stopTime="0.00" timeLoss="7.56" rerouteNo="0" devices="tripinfo_-E5__0__motorbike.2 emissions_-E5__0__motorbike.2" vType="motorbike" speedFactor="1.00" vaporized="">
        <emissions CO_abs="678.20" CO2_abs="51549.57" HC_abs="639.91" PMx_abs="13.68" NOx_abs="48.64" fuel_abs="16715.41" electricity_abs="0.00"/>
    </tripinfo>
    <tripinfo id="-E1__0__motorbike.3" depart="37.00" departLane="-E1_2" departPos="2.10" departPosLat="0.00" departSpeed="0.00" departDelay="0.21" arrival="64.00" arrivalLane="-E0_3" arrivalPos="76.80" arrivalPosLat="0.00" arrivalSpeed="10.79" duration="27.00" routeLength="206.22" waitingTime="0.00" waitingCount="0" stopTime="0.00" timeLoss="7.80" rerouteNo="0" devices="tripinfo_-E1__0__motorbike.3 emissions_-E1__0__motorbike.3" vType="motorbike" speedFactor="0.99" vaporized="">
        <emissions CO_abs="511.39" CO2_abs="44573.35" HC_abs="552.75" PMx_abs="11.87" NOx_abs="39.83" fuel_abs="14453.31" electricity_abs="0.00"/>
    </tripinfo>
    <tripinfo id="-E6__0__motorbike.1" depart="19.00" departLane="-E6_2" departPos="2.10" departPosLat="0.00" departSpeed="0.00" departDelay="0.16" arrival="65.00" arrivalLane="-E0_1" arrivalPos="76.80" arrivalPosLat="0.00" arrivalSpeed="10.48" duration="46.00" routeLength="357.69" waitingTime="1.00" waitingCount="1" stopTime="0.00" timeLoss="12.41" rerouteNo="0" devices="tripinfo_-E6__0__motorbike.1 emissions_-E6__0__motorbike.1" vType="motorbike" speedFactor="1.10" vaporized="">
        <emissions CO_abs="921.40" CO2_abs="72320.93" HC_abs="910.79" PMx_abs="19.33" NOx_abs="67.07" fuel_abs="23450.69" electricity_abs="0.00"/>
    </tripinfo>
    <tripinfo id="E0__0__motorbike.7" depart="40.00" departLane="E0_1" departPos="2.10" departPosLat="0.00" departSpeed="0.00" departDelay="0.85" arrival="67.00" arrivalLane="E1_1" arrivalPos="107.01" arrivalPosLat="0.00" arrivalSpeed="9.51" duration="27.00" routeLength="190.74" waitingTime="0.00" waitingCount="0" stopTime="0.00" timeLoss="5.95" rerouteNo="0" devices="tripinfo_E0__0__motorbike.7 emissions_E0__0__motorbike.7" vType="motorbike" speedFactor="0.86" vaporized="">
        <emissions CO_abs="456.01" CO2_abs="46596.39" HC_abs="593.45" PMx_abs="12.82" NOx_abs="38.95" fuel_abs="15109.35" electricity_abs="0.00"/>
    </tripinfo>
    <tripinfo id="-E6__0__motorbike.2" depart="30.00" departLane="-E6_3" departPos="2.10" departPosLat="0.00" departSpeed="0.00" departDelay="0.17" arrival="71.00" arrivalLane="-E0_1" arrivalPos="76.80" arrivalPosLat="0.00" arrivalSpeed="10.87" duration="41.00" routeLength="357.69" waitingTime="0.00" waitingCount="0" stopTime="0.00" timeLoss="7.75" rerouteNo="0" devices="tripinfo_-E6__0__motorbike.2 emissions_-E6__0__motorbike.2" vType="motorbike" speedFactor="1.17" vaporized="">
        <emissions CO_abs="991.13" CO2_abs="65096.78" HC_abs="812.24" PMx_abs="17.24" NOx_abs="65.45" fuel_abs="21108.21" electricity_abs="0.00"/>
    </tripinfo>
    <tripinfo id="-E5__0__motorbike.1" depart="5.00" departLane="-E5_3" departPos="2.10" departPosLat="0.00" departSpeed="0.00" departDelay="0.46" arrival="72.00" arrivalLane="E4_3" arrivalPos="100.65" arrivalPosLat="0.00" arrivalSpeed="10.61" duration="67.00" routeLength="269.14" waitingTime="30.00" waitingCount="1" stopTime="0.00" timeLoss="42.77" rerouteNo="0" devices="tripinfo_-E5__0__motorbike.1 emissions_-E5__0__motorbike.1" vType="motorbike" speedFactor="1.09" vaporized="">
        <emissions CO_abs="748.67" CO2_abs="106579.23" HC_abs="1514.58" PMx_abs="32.23" NOx_abs="71.59" fuel_abs="34559.82" electricity_abs="0.00"/>
    </tripinfo>
    <tripinfo id="-E2__0__motorbike.1" depart="8.00" departLane="-E2_3" departPos="2.10" departPosLat="0.00" departSpeed="0.00" departDelay="1.20" arrival="72.00" arrivalLane="-E0_2" arrivalPos="76.80" arrivalPosLat="0.00" arrivalSpeed="9.21" duration="64.00" routeLength="202.78" waitingTime="32.00" waitingCount="1" stopTime="0.00" timeLoss="42.40" rerouteNo="0" devices="tripinfo_-E2__0__motorbike.1 emissions_-E2__0__motorbike.1" vType="motorbike" speedFactor="0.88" vaporized="">
        <emissions CO_abs="406.39" CO2_abs="96485.68" HC_abs="1414.16" PMx_abs="29.75" NOx_abs="56.24" fuel_abs="31286.92" electricity_abs="0.00"/>
    </tripinfo>
    <tripinfo id="E0__0__motorbike.9" depart="47.00" departLane="E0_3" departPos="2.10" departPosLat="0.00" departSpeed="0.00" departDelay="0.98" arrival="72.00" arrivalLane="E1_1" arrivalPos="107.01" arrivalPosLat="0.00" arrivalSpeed="10.59" duration="25.00" routeLength="190.74" waitingTime="0.00" waitingCount="0" stopTime="0.00" timeLoss="6.15" rerouteNo="0" devices="tripinfo_E0__0__motorbike.9 emissions_E0__0__motorbike.9" vType="motorbike" speedFactor="0.96" vaporized="">
        <emissions CO_abs="505.88" CO2_abs="42365.53" HC_abs="525.62" PMx_abs="11.29" NOx_abs="38.51" fuel_abs="13737.41" electricity_abs="0.00"/>
    </tripinfo>
    <tripinfo id="-E2__0__car.1" depart="11.00" departLane="-E2_2" departPos="4.60" departPosLat="0.00" departSpeed="0.00" departDelay="0.18" arrival="73.00" arrivalLane="-E0_2" arrivalPos="76.80" arrivalPosLat="0.00" arrivalSpeed="10.31" duration="62.00" routeLength="200.28" waitingTime="30.00" waitingCount="2" stopTime="0.00" timeLoss="43.95" rerouteNo="0" devices="tripinfo_-E2__0__car.1 emissions_-E2__0__car.1" vType="car" speedFactor="1.08" vaporized="">
        <emissions CO_abs="206.57" CO2_abs="124978.87" HC_abs="1.37" PMx_abs="4.88" NOx_abs="43.54" fuel_abs="40516.72" electricity_abs="0.00"/>
    </tripinfo>
    <tripinfo id="-E1__0__car.3" depart="45.00" departLane="-E1_3" departPos="4.60" departPosLat="0.00" departSpeed="0.00" departDelay="0.54" arrival="73.00" arrivalLane="E2_1" arrivalPos="100.88" arrivalPosLat="0.00" arrivalSpeed="10.35" duration="28.00" routeLength="212.32" waitingTime="0.00" waitingCount="0" stopTime="0.00" timeLoss="6.30" rerouteNo="0" devices="tripinfo_-E1__0__car.3 emissions_-E1__0__car.3" vType="car" speedFactor="0.95" vaporized="">
        <emissions CO_abs="212.32" CO2_abs="69120.92" HC_abs="1.41" PMx_abs="5.18" NOx_abs="22.28" fuel_abs="22408.01" electricity_abs="0.00"/>
    </tripinfo>
    <tripinfo id="-E2__0__motorbike.0" depart="7.00" departLane="-E2_2" departPos="2.10" departPosLat="0.00" departSpeed="0.00" departDelay="0.46" arrival="75.00" arrivalLane="E1_3" arrivalPos="107.01" arrivalPosLat="0.00" arrivalSpeed="10.95" duration="68.00" routeLength="230.30" waitingTime="34.00" waitingCount="1" stopTime="0.00" timeLoss="46.94" rerouteNo="0" devices="tripinfo_-E2__0__motorbike.0 emissions_-E2__0__motorbike.0" vType="motorbike" speedFactor="1.08" vaporized="">
        <emissions CO_abs="691.16" CO2_abs="110643.19" HC_abs="1585.69" PMx_abs="33.67" NOx_abs="71.90" fuel_abs="35877.64" electricity_abs="0.00"/>
    </tripinfo>
    <tripinfo id="-E2__0__motorbike.2" depart="13.00" departLane="-E2_3" departPos="2.10" departPosLat="0.00" departSpeed="0.00" departDelay="1.97" arrival="75.00" arrivalLane="-E0_2" arrivalPos="76.80" arrivalPosLat="0.00" arrivalSpeed="10.42" duration="62.00" routeLength="202.78" waitingTime="26.00" waitingCount="1" stopTime="0.00" timeLoss="43.21" rerouteNo="0" devices="tripinfo_-E2__0__motorbike.2 emissions_-E2__0__motorbike.2" vType="motorbike" speedFactor="1.00" vaporized="">
        <emissions CO_abs="512.35" CO2_abs="99240.64" HC_abs="1414.39" PMx_abs="29.74" NOx_abs="62.51" fuel_abs="32180.13" electricity_abs="0.00"/>
    </tripinfo>
    <tripinfo id="E0__0__motorbike.10" depart="49.00" departLane="E0_3" departPos="2.10" departPosLat="0.00" departSpeed="0.00" departDelay="0.86" arrival="75.00" arrivalLane="E1_1" arrivalPos="107.01" arrivalPosLat="0.00" arrivalSpeed="10.91" duration="26.00" routeLength="190.74" waitingTime="0.00" waitingCount="0" stopTime="0.00" timeLoss="7.36" rerouteNo="0" devices="tripinfo_E0__0__motorbike.10 emissions_E0__0__motorbike.10" vType="motorbike" speedFactor="1.02" vaporized="">
        <emissions CO_abs="562.57" CO2_abs="45682.89" HC_abs="559.44" PMx_abs="11.99" NOx_abs="42.20" fuel_abs="14813.06" electricity_abs="0.00"/>
    </tripinfo>
    <tripinfo id="-E5__0__car.0" depart="10.00" departLane="-E5_1" departPos="4.60" departPosLat="0.00" departSpeed="0.00" departDelay="0.69" arrival="76.00" arrivalLane="E4_3" arrivalPos="100.65" arrivalPosLat="0.00" arrivalSpeed="9.17" duration="66.00" routeLength="266.64" waitingTime="26.00" waitingCount="1" stopTime="0.00" timeLoss="37.75" rerouteNo="0" devices="tripinfo_-E5__0__car.0 emissions_-E5__0__car.0" vType="car" speedFactor="0.86" vaporized="">
        <emissions CO_abs="188.81" CO2_abs="124143.72" HC_abs="1.25" PMx_abs="5.84" NOx_abs="42.90" fuel_abs="40245.96" electricity_abs="0.00"/>
    </tripinfo>
    <tripinfo id="-E2__0__motorbike.4" depart="41.00" departLane="-E2_1" departPos="2.10" departPosLat="0.00" departSpeed="0.00" departDelay="0.15" arrival="76.00" arrivalLane="-E0_2" arrivalPos="76.80" arrivalPosLat="0.05" arrivalSpeed="10.45" duration="35.00" routeLength="202.78" waitingTime="5.00" waitingCount="1" stopTime="0.00" timeLoss="15.91" rerouteNo="0" devices="tripinfo_-E2__0__motorbike.4 emissions_-E2__0__motorbike.4" vType="motorbike" speedFactor="1.12" vaporized="">
        <emissions CO_abs="622.51" CO2_abs="62660.82" HC_abs="801.17" PMx_abs="17.27" NOx_abs="50.64" fuel_abs="20318.42" electricity_abs="0.00"/>
    </tripinfo>
    <tripinfo id="-E2__0__car.0" depart="8.00" departLane="-E2_1" departPos="4.60" departPosLat="0.00" departSpeed="0.00" departDelay="0.29" arrival="77.00" arrivalLane="E1_3" arrivalPos="107.01" arrivalPosLat="0.00" arrivalSpeed="10.65" duration="69.00" routeLength="227.80" waitingTime="31.00" waitingCount="1" stopTime="0.00" timeLoss="48.16" rerouteNo="0" devices="tripinfo_-E2__0__car.0 emissions_-E2__0__car.0" vType="car" speedFactor="1.02" vaporized="">
        <emissions CO_abs="230.92" CO2_abs="138396.86" HC_abs="1.53" PMx_abs="5.89" NOx_abs="48.68" fuel_abs="44866.76" electricity_abs="0.00"/>
    </tripinfo>
    <tripinfo id="-E4__0__motorbike.4" depart="36.00" departLane="-E4_1" departPos="2.10" departPosLat="0.00" departSpeed="0.00" departDelay="0.09" arrival="77.00" arrivalLane="-E0_1" arrivalPos="76.80" arrivalPosLat="0.00" arrivalSpeed="10.71" duration="41.00" routeLength="364.76" waitingTime="0.00" waitingCount="0" stopTime="0.00" timeLoss="7.11" rerouteNo="0" devices="tripinfo_-E4__0__motorbike.4 emissions_-E4__0__motorbike.4" vType="motorbike" speedFactor="1.06" vaporized="">
        <emissions CO_abs="923.40" CO2_abs="62052.19" HC_abs="790.04" PMx_abs="16.92" NOx_abs="60.01" fuel_abs="20121.05" electricity_abs="0.00"/>
    </tripinfo>
    <tripinfo id="-E5__0__car.1" depart="13.00" departLane="-E5_1" departPos="4.60" departPosLat="0.00" departSpeed="0.00" departDelay="1.74" arrival="78.00" arrivalLane="E4_3" arrivalPos="100.65" arrivalPosLat="0.00" arrivalSpeed="10.45" duration="65.00" routeLength="266.64" waitingTime="25.00" waitingCount="1" stopTime="0.00" timeLoss="40.55" rerouteNo="0" devices="tripinfo_-E5__0__car.1 emissions_-E5__0__car.1" vType="car" speedFactor="1.16" vaporized="">
        <emissions CO_abs="251.63" CO2_abs="133042.82" HC_abs="1.67" PMx_abs="6.84" NOx_abs="46.01" fuel_abs="43130.93" electricity_abs="0.00"/>
    </tripinfo>
    <tripinfo id="-E2__0__car.4" depart="21.00" departLane="-E2_1" departPos="4.60" departPosLat="0.00" departSpeed="0.00" departDelay="0.68" arrival="80.00" arrivalLane="E1_3" arrivalPos="107.01" arrivalPosLat="0.00" arrivalSpeed="9.92" duration="59.00" routeLength="227.80" waitingTime="21.00" waitingCount="2" stopTime="0.00" timeLoss="35.49" rerouteNo="0" devices="tripinfo_-E2__0__car.4 emissions_-E2__0__car.4" vType="car" speedFactor="0.91" vaporized="">
        <emissions CO_abs="206.31" CO2_abs="118790.98" HC_abs="1.37" PMx_abs="5.63" NOx_abs="40.58" fuel_abs="38510.61" electricity_abs="0.00"/>
    </tripinfo>
    <tripinfo id="-E1__0__motorbike.6" depart="53.00" departLane="-E1_3" departPos="2.10" departPosLat="0.00" departSpeed="0.00" departDelay="0.87" arrival="80.00" arrivalLane="E2_1" arrivalPos="100.88" arrivalPosLat="0.00" arrivalSpeed="11.10" duration="27.00" routeLength="214.82" waitingTime="0.00" waitingCount="0" stopTime="0.00" timeLoss="6.71" rerouteNo="0" devices="tripinfo_-E1__0__motorbike.6 emissions_-E1__0__motorbike.6" vType="motorbike" speedFactor="1.08" vaporized="">
        <emissions CO_abs="663.84" CO2_abs="48602.31" HC_abs="591.83" PMx_abs="12.66" NOx_abs="46.85" fuel_abs="15759.70" electricity_abs="0.00"/>
    </tripinfo>
    <tripinfo id="-E2__0__car.5" depart="27.00" departLane="-E2_2" departPos="4.60" departPosLat="0.00" departSpeed="0.00" departDelay="0.05" arrival="81.00" arrivalLane="E1_3" arrivalPos="107.01" arrivalPosLat="0.00" arrivalSpeed="10.88" duration="54.00" routeLength="227.80" waitingTime="18.00" waitingCount="1" stopTime="0.00" timeLoss="33.17" rerouteNo="0" devices="tripinfo_-E2__0__car.5 emissions_-E2__0__car.5" vType="car" speedFactor="1.14" vaporized="">
        <emissions CO_abs="251.63" CO2_abs="116707.08" HC_abs="1.67" PMx_abs="5.67" NOx_abs="39.69" fuel_abs="37834.91" electricity_abs="0.00"/>
    </tripinfo>
    <tripinfo id="-E4__0__motorbike.6" depart="49.00" departLane="-E4_3" departPos="2.10" departPosLat="0.00" departSpeed="0.00" departDelay="0.77" arrival="81.00" arrivalLane="E5_2" arrivalPos="146.08" arrivalPosLat="0.00" arrivalSpeed="10.48" duration="32.00" routeLength="253.66" waitingTime="0.00" waitingCount="0" stopTime="0.00" timeLoss="7.99" rerouteNo="0" devices="tripinfo_-E4__0__motorbike.6 emissions_-E4__0__motorbike.6" vType="motorbike" speedFactor="1.01" vaporized="">
        <emissions CO_abs="681.54" CO2_abs="53212.99" HC_abs="662.47" PMx_abs="14.21" NOx_abs="49.27" fuel_abs="17254.80" electricity_abs="0.00"/>
    </tripinfo>