<?xml version="1.0" encoding="UTF-8"?>

<!-- generated on 2025-12-25 17:12:34 by Eclipse SUMO GUI Version 1.24.0
<sumoConfiguration xmlns:xsi="http://www.w3.org/2001/XMLSchema-instance" xsi:noNamespaceSchemaLocation="http://sumo.dlr.de/xsd/sumoConfiguration.xsd">

    <input>
        <net-file value="Scenario/test/env/test.net.xml"/>
        <route-files value="Scenario/test/env/../routes/vehicle.rou.xml"/>
        <additional-files value="Scenario/test/env/../add/tls.add.xml,Scenario/test/env/ ../add/e2.add.xml"/>
    </input>

    <output>
        <tripinfo-output value="/home/hoanganh04/Projects/CoLight/depploy.log.monitor.tripinfo.xml"/>
        <tripinfo-output.write-unfinished value="true"/>
    </output>

    <time>
        <begin value="0"/>
        <end value="500"/>
        <step-length value="1.0"/>
    </time>

    <processing>
        <lateral-resolution value="0.2"/>
        <time-to-teleport value="-1"/>
        <waiting-time-memory value="10000"/>
        <max-depart-delay value="100000"/>
    </processing>

    <report>
        <no-warnings value="true"/>
        <no-step-log value="true"/>
    </report>

    <emissions>
        <device.emissions.probability value="1.0"/>
    </emissions>

    <traci_server>
        <remote-port value="32937"/>
    </traci_server>

    <random_number>
        <random value="true"/>
    </random_number>

    <gui_only>
        <quit-on-end value="true"/>
        <start value="true"/>
    </gui_only>

</sumoConfiguration>
-->

<tripinfos xmlns:xsi="http://www.w3.org/2001/XMLSchema-instance" xsi:noNamespaceSchemaLocation="http://sumo.dlr.de/xsd/tripinfo_file.xsd">
    <tripinfo id="-E1__0__car.0" depart="4.00" departLane="-E1_2" departPos="4.60" departPosLat="0.00" departSpeed="0.00" departDelay="0.42" arrival="31.00" arrivalLane="E2_1" arrivalPos="100.88" arrivalPosLat="0.00" arrivalSpeed="10.90" duration="27.00" routeLength="212.32" waitingTime="0.00" waitingCount="0" stopTime="0.00" timeLoss="7.00" rerouteNo="0" devices="tripinfo_-E1__0__car.0 emissions_-E1__0__car.0" vType="car" speedFactor="1.06" vaporized="">
        <emissions CO_abs="244.96" CO2_abs="74649.02" HC_abs="1.63" PMx_abs="5.71" NOx_abs="24.00" fuel_abs="24200.13" electricity_abs="0.00"/>
    </tripinfo>
    <tripinfo id="-E2__0__motorbike.1" depart="8.00" departLane="-E2_3" departPos="2.10" departPosLat="0.00" departSpeed="0.00" departDelay="1.20" arrival="33.00" arrivalLane="-E0_2" arrivalPos="76.80" arrivalPosLat="0.00" arrivalSpeed="10.67" duration="25.00" routeLength="202.78" waitingTime="0.00" waitingCount="0" stopTime="0.00" timeLoss="5.89" rerouteNo="0" devices="tripinfo_-E2__0__motorbike.1 emissions_-E2__0__motorbike.1" vType="motorbike" speedFactor="1.02" vaporized="">
        <emissions CO_abs="467.34" CO2_abs="37005.41" HC_abs="462.74" PMx_abs="9.99" NOx_abs="33.26" fuel_abs="11999.36" electricity_abs="0.00"/>
    </tripinfo>
    <tripinfo id="-E2__0__motorbike.0" depart="7.00" departLane="-E2_2" departPos="2.10" departPosLat="0.00" departSpeed="0.00" departDelay="0.46" arrival="34.00" arrivalLane="E1_3" arrivalPos="107.01" arrivalPosLat="0.00" arrivalSpeed="10.85" duration="27.00" routeLength="230.30" waitingTime="0.00" waitingCount="0" stopTime="0.00" timeLoss="5.41" rerouteNo="0" devices="tripinfo_-E2__0__motorbike.0 emissions_-E2__0__motorbike.0" vType="motorbike" speedFactor="0.99" vaporized="">
        <emissions CO_abs="708.60" CO2_abs="47744.03" HC_abs="603.04" PMx_abs="12.90" NOx_abs="46.28" fuel_abs="15481.47" electricity_abs="0.00"/>
    </tripinfo>
    <tripinfo id="-E4__0__car.0" depart="5.00" departLane="-E4_1" departPos="4.60" departPosLat="0.00" departSpeed="0.00" departDelay="0.84" arrival="35.00" arrivalLane="E5_1" arrivalPos="146.08" arrivalPosLat="0.00" arrivalSpeed="10.51" duration="30.00" routeLength="251.16" waitingTime="0.00" waitingCount="0" stopTime="0.00" timeLoss="6.57" rerouteNo="0" devices="tripinfo_-E4__0__car.0 emissions_-E4__0__car.0" vType="car" speedFactor="1.03" vaporized="">
        <emissions CO_abs="240.91" CO2_abs="73385.81" HC_abs="1.60" PMx_abs="5.78" NOx_abs="23.73" fuel_abs="23790.63" electricity_abs="0.00"/>
    </tripinfo>
    <tripinfo id="-E5__0__motorbike.1" depart="5.00" departLane="-E5_2" departPos="2.10" departPosLat="0.00" departSpeed="0.00" departDelay="0.46" arrival="35.00" arrivalLane="E4_3" arrivalPos="100.65" arrivalPosLat="0.00" arrivalSpeed="10.91" duration="30.00" routeLength="269.14" waitingTime="0.00" waitingCount="0" stopTime="0.00" timeLoss="5.28" rerouteNo="0" devices="tripinfo_-E5__0__motorbike.1 emissions_-E5__0__motorbike.1" vType="motorbike" speedFactor="1.25" vaporized="">
        <emissions CO_abs="670.65" CO2_abs="44703.03" HC_abs="569.15" PMx_abs="12.21" NOx_abs="42.73" fuel_abs="14495.41" electricity_abs="0.00"/>
    </tripinfo>
    <tripinfo id="-E2__0__car.1" depart="11.00" departLane="-E2_2" departPos="4.60" departPosLat="0.00" departSpeed="0.00" departDelay="0.18" arrival="36.00" arrivalLane="-E0_2" arrivalPos="76.80" arrivalPosLat="0.00" arrivalSpeed="10.13" duration="25.00" routeLength="200.28" waitingTime="0.00" waitingCount="0" stopTime="0.00" timeLoss="6.32" rerouteNo="0" devices="tripinfo_-E2__0__car.1 emissions_-E2__0__car.1" vType="car" speedFactor="0.98" vaporized="">
        <emissions CO_abs="153.15" CO2_abs="58677.34" HC_abs="1.02" PMx_abs="5.23" NOx_abs="19.49" fuel_abs="19022.43" electricity_abs="0.00"/>
    </tripinfo>
    <tripinfo id="-E4__0__motorbike.1" depart="6.00" departLane="-E4_3" departPos="2.10" departPosLat="0.00" departSpeed="0.00" departDelay="0.32" arrival="38.00" arrivalLane="E5_1" arrivalPos="146.08" arrivalPosLat="0.00" arrivalSpeed="10.72" duration="32.00" routeLength="253.66" waitingTime="0.00" waitingCount="0" stopTime="0.00" timeLoss="8.48" rerouteNo="0" devices="tripinfo_-E4__0__motorbike.1 emissions_-E4__0__motorbike.1" vType="motorbike" speedFactor="1.05" vaporized="">
        <emissions CO_abs="682.13" CO2_abs="53867.60" HC_abs="667.02" PMx_abs="14.29" NOx_abs="50.07" fuel_abs="17467.05" electricity_abs="0.00"/>
    </tripinfo>
    <tripinfo id="-E1__0__motorbike.0" depart="11.00" departLane="-E1_2" departPos="2.10" departPosLat="0.00" departSpeed="0.00" departDelay="0.12" arrival="38.00" arrivalLane="E2_1" arrivalPos="100.88" arrivalPosLat="0.00" arrivalSpeed="10.74" duration="27.00" routeLength="214.82" waitingTime="0.00" waitingCount="0" stopTime="0.00" timeLoss="6.86" rerouteNo="0" devices="tripinfo_-E1__0__motorbike.0 emissions_-E1__0__motorbike.0" vType="motorbike" speedFactor="1.04" vaporized="">
        <emissions CO_abs="641.12" CO2_abs="49407.18" HC_abs="611.05" PMx_abs="13.10" NOx_abs="46.28" fuel_abs="16020.72" electricity_abs="0.00"/>
    </tripinfo>
    <tripinfo id="-E5__0__motorbike.0" depart="1.00" departLane="-E5_2" departPos="2.10" departPosLat="0.00" departSpeed="0.00" departDelay="0.97" arrival="39.00" arrivalLane="E6_1" arrivalPos="109.06" arrivalPosLat="0.00" arrivalSpeed="8.10" duration="38.00" routeLength="262.07" waitingTime="0.00" waitingCount="0" stopTime="0.00" timeLoss="6.16" rerouteNo="0" devices="tripinfo_-E5__0__motorbike.0 emissions_-E5__0__motorbike.0" vType="motorbike" speedFactor="0.78" vaporized="">
        <emissions CO_abs="443.58" CO2_abs="53435.83" HC_abs="709.03" PMx_abs="15.34" NOx_abs="41.70" fuel_abs="17327.20" electricity_abs="0.00"/>
    </tripinfo>
    <tripinfo id="-E6__0__car.0" depart="2.00" departLane="-E6_3" departPos="4.60" departPosLat="0.00" departSpeed="0.00" departDelay="0.46" arrival="46.00" arrivalLane="E4_2" arrivalPos="100.65" arrivalPosLat="0.00" arrivalSpeed="9.09" duration="44.00" routeLength="232.31" waitingTime="9.00" waitingCount="1" stopTime="0.00" timeLoss="19.53" rerouteNo="0" devices="tripinfo_-E6__0__car.0 emissions_-E6__0__car.0" vType="car" speedFactor="0.88" vaporized="">
        <emissions CO_abs="191.97" CO2_abs="92615.84" HC_abs="1.28" PMx_abs="5.43" NOx_abs="30.64" fuel_abs="30024.83" electricity_abs="0.00"/>
    </tripinfo>
    <tripinfo id="-E4__0__motorbike.2" depart="16.00" departLane="-E4_3" departPos="2.10" departPosLat="0.00" departSpeed="0.00" departDelay="0.32" arrival="46.00" arrivalLane="E5_1" arrivalPos="146.08" arrivalPosLat="0.00" arrivalSpeed="10.50" duration="30.00" routeLength="253.66" waitingTime="0.00" waitingCount="0" stopTime="0.00" timeLoss="6.31" rerouteNo="0" devices="tripinfo_-E4__0__motorbike.2 emissions_-E4__0__motorbike.2" vType="motorbike" speedFactor="1.03" vaporized="">
        <emissions CO_abs="721.42" CO2_abs="51305.50" HC_abs="637.70" PMx_abs="13.65" NOx_abs="49.28" fuel_abs="16636.27" electricity_abs="0.00"/>
    </tripinfo>
    <tripinfo id="-E5__0__car.2" depart="16.00" departLane="-E5_1" departPos="4.60" departPosLat="0.00" departSpeed="0.00" departDelay="0.92" arrival="47.00" arrivalLane="E6_1" arrivalPos="109.06" arrivalPosLat="0.00" arrivalSpeed="11.01" duration="31.00" routeLength="259.57" waitingTime="0.00" waitingCount="0" stopTime="0.00" timeLoss="6.48" rerouteNo="0" devices="tripinfo_-E5__0__car.2 emissions_-E5__0__car.2" vType="car" speedFactor="1.04" vaporized="">
        <emissions CO_abs="264.86" CO2_abs="76855.49" HC_abs="1.76" PMx_abs="6.19" NOx_abs="25.01" fuel_abs="24915.46" electricity_abs="0.00"/>
    </tripinfo>
    <tripinfo id="-E6__0__car.4" depart="19.00" departLane="-E6_1" departPos="4.60" departPosLat="0.00" departSpeed="0.00" departDelay="2.54" arrival="47.00" arrivalLane="E4_2" arrivalPos="100.65" arrivalPosLat="0.00" arrivalSpeed="10.87" duration="28.00" routeLength="232.31" waitingTime="0.00" waitingCount="0" stopTime="0.00" timeLoss="6.53" rerouteNo="0" devices="tripinfo_-E6__0__car.4 emissions_-E6__0__car.4" vType="car" speedFactor="0.99" vaporized="">
        <emissions CO_abs="221.45" CO2_abs="65013.05" HC_abs="1.47" PMx_abs="5.01" NOx_abs="21.09" fuel_abs="21076.30" electricity_abs="0.00"/>
    </tripinfo>
    <tripinfo id="-E6__0__car.1" depart="4.00" departLane="-E6_1" departPos="4.60" departPosLat="0.00" departSpeed="0.00" departDelay="0.57" arrival="49.00" arrivalLane="-E0_1" arrivalPos="76.80" arrivalPosLat="0.00" arrivalSpeed="9.73" duration="45.00" routeLength="355.19" waitingTime="0.00" waitingCount="0" stopTime="0.00" timeLoss="8.96" rerouteNo="0" devices="tripinfo_-E6__0__car.1 emissions_-E6__0__car.1" vType="car" speedFactor="0.92" vaporized="">
        <emissions CO_abs="284.48" CO2_abs="100233.34" HC_abs="1.89" PMx_abs="7.97" NOx_abs="32.49" fuel_abs="32494.27" electricity_abs="0.00"/>
    </tripinfo>
    <tripinfo id="-E4__0__motorbike.3" depart="17.00" departLane="-E4_2" departPos="2.10" departPosLat="0.00" departSpeed="0.00" departDelay="0.25" arrival="50.00" arrivalLane="E5_2" arrivalPos="146.08" arrivalPosLat="0.00" arrivalSpeed="9.44" duration="33.00" routeLength="253.66" waitingTime="0.00" waitingCount="0" stopTime="0.00" timeLoss="6.50" rerouteNo="0" devices="tripinfo_-E4__0__motorbike.3 emissions_-E4__0__motorbike.3" vType="motorbike" speedFactor="0.92" vaporized="">
        <emissions CO_abs="556.20" CO2_abs="47780.80" HC_abs="601.70" PMx_abs="12.94" NOx_abs="42.80" fuel_abs="15493.39" electricity_abs="0.00"/>
    </tripinfo>
    <tripinfo id="-E1__0__car.1" depart="18.00" departLane="-E1_2" departPos="4.60" departPosLat="0.00" departSpeed="0.00" departDelay="0.63" arrival="50.00" arrivalLane="E2_1" arrivalPos="100.88" arrivalPosLat="0.00" arrivalSpeed="8.85" duration="32.00" routeLength="212.32" waitingTime="0.00" waitingCount="0" stopTime="0.00" timeLoss="7.73" rerouteNo="0" devices="tripinfo_-E1__0__car.1 emissions_-E1__0__car.1" vType="car" speedFactor="0.83" vaporized="">
        <emissions CO_abs="157.67" CO2_abs="69430.48" HC_abs="1.05" PMx_abs="4.97" NOx_abs="22.50" fuel_abs="22508.41" electricity_abs="0.00"/>
    </tripinfo>
    <tripinfo id="-E1__0__motorbike.2" depart="27.00" departLane="-E1_1" departPos="2.10" departPosLat="0.00" departSpeed="0.00" departDelay="0.30" arrival="54.00" arrivalLane="E2_1" arrivalPos="100.88" arrivalPosLat="0.00" arrivalSpeed="10.38" duration="27.00" routeLength="214.82" waitingTime="0.00" waitingCount="0" stopTime="0.00" timeLoss="6.15" rerouteNo="0" devices="tripinfo_-E1__0__motorbike.2 emissions_-E1__0__motorbike.2" vType="motorbike" speedFactor="0.99" vaporized="">
        <emissions CO_abs="598.11" CO2_abs="44630.50" HC_abs="538.52" PMx_abs="11.52" NOx_abs="42.90" fuel_abs="14471.79" electricity_abs="0.00"/>
    </tripinfo>
    <tripinfo id="E0__0__car.0" depart="27.00" departLane="E0_2" departPos="4.60" departPosLat="0.00" departSpeed="0.00" departDelay="0.60" arrival="55.00" arrivalLane="E1_1" arrivalPos="107.01" arrivalPosLat="0.00" arrivalSpeed="10.75" duration="28.00" routeLength="188.24" waitingTime="3.00" waitingCount="1" stopTime="0.00" timeLoss="10.24" rerouteNo="0" devices="tripinfo_E0__0__car.0 emissions_E0__0__car.0" vType="car" speedFactor="1.06" vaporized="">
        <emissions CO_abs="218.71" CO2_abs="70121.98" HC_abs="1.45" PMx_abs="4.39" NOx_abs="22.73" fuel_abs="22732.45" electricity_abs="0.00"/>
    </tripinfo>
    <tripinfo id="-E6__0__car.2" depart="13.00" departLane="-E6_3" departPos="4.60" departPosLat="0.00" departSpeed="0.00" departDelay="0.59" arrival="56.00" arrivalLane="-E0_1" arrivalPos="76.80" arrivalPosLat="0.00" arrivalSpeed="10.74" duration="43.00" routeLength="355.19" waitingTime="0.00" waitingCount="0" stopTime="0.00" timeLoss="9.52" rerouteNo="0" devices="tripinfo_-E6__0__car.2 emissions_-E6__0__car.2" vType="car" speedFactor="1.01" vaporized="">
        <emissions CO_abs="377.35" CO2_abs="107053.35" HC_abs="2.51" PMx_abs="8.27" NOx_abs="34.43" fuel_abs="34705.14" electricity_abs="0.00"/>
    </tripinfo>
    <tripinfo id="-E6__0__motorbike.0" depart="16.00" departLane="-E6_3" departPos="2.10" departPosLat="0.00" departSpeed="0.00" departDelay="0.41" arrival="59.00" arrivalLane="-E0_1" arrivalPos="76.80" arrivalPosLat="0.00" arrivalSpeed="10.75" duration="43.00" routeLength="357.69" waitingTime="0.00" waitingCount="0" stopTime="0.00" timeLoss="8.78" rerouteNo="0" devices="tripinfo_-E6__0__motorbike.0 emissions_-E6__0__motorbike.0" vType="motorbike" speedFactor="1.07" vaporized="">
        <emissions CO_abs="885.96" CO2_abs="64005.03" HC_abs="806.71" PMx_abs="17.13" NOx_abs="61.91" fuel_abs="20754.22" electricity_abs="0.00"/>
    </tripinfo>
    <tripinfo id="E0__0__motorbike.6" depart="34.00" departLane="E0_3" departPos="2.10" departPosLat="0.00" departSpeed="0.00" departDelay="0.34" arrival="59.00" arrivalLane="E1_1" arrivalPos="107.01" arrivalPosLat="0.00" arrivalSpeed="10.68" duration="25.00" routeLength="190.74" waitingTime="0.00" waitingCount="0" stopTime="0.00" timeLoss="6.37" rerouteNo="0" devices="tripinfo_E0__0__motorbike.6 emissions_E0__0__motorbike.6" vType="motorbike" speedFactor="1.02" vaporized="">
        <emissions CO_abs="623.61" CO2_abs="45998.92" HC_abs="561.56" PMx_abs="12.02" NOx_abs="44.08" fuel_abs="14915.53" electricity_abs="0.00"/>
    </tripinfo>
    <tripinfo id="E0__0__motorbike.5" depart="32.00" departLane="E0_1" departPos="2.10" departPosLat="0.00" departSpeed="0.00" departDelay="0.92" arrival="61.00" arrivalLane="E1_1" arrivalPos="107.01" arrivalPosLat="0.00" arrivalSpeed="10.36" duration="29.00" routeLength="190.74" waitingTime="0.00" waitingCount="0" stopTime="0.00" timeLoss="11.04" rerouteNo="0" devices="tripinfo_E0__0__motorbike.5 emissions_E0__0__motorbike.5" vType="motorbike" speedFactor="1.00" vaporized="">
        <emissions CO_abs="524.07" CO2_abs="52847.90" HC_abs="657.47" PMx_abs="13.96" NOx_abs="44.46" fuel_abs="17136.38" electricity_abs="0.00"/>
    </tripinfo>
    <tripinfo id="-E5__0__motorbike.2" depart="31.00" departLane="-E5_1" departPos="2.10" departPosLat="0.00" departSpeed="0.00" departDelay="0.11" arrival="63.00" arrivalLane="E6_1" arrivalPos="109.06" arrivalPosLat="0.00" arrivalSpeed="11.07" duration="32.00" routeLength="262.07" waitingTime="0.00" waitingCount="0" stopTime="0.00" timeLoss="7.31" rerouteNo="0" devices="tripinfo_-E5__0__motorbike.2 emissions_-E5__0__motorbike.2" vType="motorbike" speedFactor="1.06" vaporized="">
        <emissions CO_abs="734.23" CO2_abs="53381.51" HC_abs="665.04" PMx_abs="14.23" NOx_abs="50.91" fuel_abs="17309.44" electricity_abs="0.00"/>
    </tripinfo>
    <tripinfo id="E0__0__motorbike.1" depart="8.00" departLane="E0_2" departPos="2.10" departPosLat="0.00" departSpeed="0.00" departDelay="0.05" arrival="65.00" arrivalLane="E2_2" arrivalPos="100.88" arrivalPosLat="0.00" arrivalSpeed="10.72" duration="57.00" routeLength="202.78" waitingTime="27.00" waitingCount="1" stopTime="0.00" timeLoss="38.72" rerouteNo="0" devices="tripinfo_E0__0__motorbike.1 emissions_E0__0__motorbike.1" vType="motorbike" speedFactor="1.00" vaporized="">
        <emissions CO_abs="561.73" CO2_abs="91828.06" HC_abs="1313.12" PMx_abs="27.57" NOx_abs="59.82" fuel_abs="29776.50" electricity_abs="0.00"/>
    </tripinfo>
    <tripinfo id="-E2__0__car.2" depart="13.00" departLane="-E2_1" departPos="4.60" departPosLat="0.00" departSpeed="0.00" departDelay="0.68" arrival="66.00" arrivalLane="E6_3" arrivalPos="109.06" arrivalPosLat="0.00" arrivalSpeed="10.74" duration="53.00" routeLength="394.75" waitingTime="4.00" waitingCount="1" stopTime="0.00" timeLoss="16.81" rerouteNo="0" devices="tripinfo_-E2__0__car.2 emissions_-E2__0__car.2" vType="car" speedFactor="1.03" vaporized="">
        <emissions CO_abs="371.89" CO2_abs="124239.17" HC_abs="2.47" PMx_abs="9.51" NOx_abs="40.91" fuel_abs="40276.68" electricity_abs="0.00"/>
    </tripinfo>
    <tripinfo id="E0__0__motorbike.7" depart="40.00" departLane="E0_1" departPos="2.10" departPosLat="0.00" departSpeed="0.00" departDelay="0.85" arrival="66.00" arrivalLane="E1_1" arrivalPos="107.01" arrivalPosLat="0.00" arrivalSpeed="10.57" duration="26.00" routeLength="190.74" waitingTime="0.00" waitingCount="0" stopTime="0.00" timeLoss="7.81" rerouteNo="0" devices="tripinfo_E0__0__motorbike.7 emissions_E0__0__motorbike.7" vType="motorbike" speedFactor="1.04" vaporized="">
        <emissions CO_abs="516.79" CO2_abs="44179.79" HC_abs="533.82" PMx_abs="11.47" NOx_abs="40.06" fuel_abs="14325.66" electricity_abs="0.00"/>
    </tripinfo>
    <tripinfo id="E0__0__motorbike.2" depart="26.00" departLane="E0_1" departPos="2.10" departPosLat="0.00" departSpeed="0.00" departDelay="0.78" arrival="67.00" arrivalLane="E2_2" arrivalPos="100.88" arrivalPosLat="0.00" arrivalSpeed="9.24" duration="41.00" routeLength="202.78" waitingTime="9.00" waitingCount="1" stopTime="0.00" timeLoss="20.09" rerouteNo="0" devices="tripinfo_E0__0__motorbike.2 emissions_E0__0__motorbike.2" vType="motorbike" speedFactor="0.90" vaporized="">
        <emissions CO_abs="471.46" CO2_abs="66088.50" HC_abs="903.15" PMx_abs="19.21" NOx_abs="47.04" fuel_abs="21429.99" electricity_abs="0.00"/>
    </tripinfo>
    <tripinfo id="-E2__0__car.3" depart="20.00" departLane="-E2_3" departPos="4.60" departPosLat="0.00" departSpeed="0.00" departDelay="0.72" arrival="69.00" arrivalLane="E6_3" arrivalPos="109.06" arrivalPosLat="0.00" arrivalSpeed="10.75" duration="49.00" routeLength="394.75" waitingTime="0.00" waitingCount="0" stopTime="0.00" timeLoss="12.17" rerouteNo="0" devices="tripinfo_-E2__0__car.3 emissions_-E2__0__car.3" vType="car" speedFactor="1.15" vaporized="">
        <emissions CO_abs="411.72" CO2_abs="116288.45" HC_abs="2.73" PMx_abs="8.86" NOx_abs="37.48" fuel_abs="37699.03" electricity_abs="0.00"/>
    </tripinfo>
    <tripinfo id="-E6__0__motorbike.1" depart="19.00" departLane="-E6_2" departPos="2.10" departPosLat="0.00" departSpeed="0.00" departDelay="0.16" arrival="70.00" arrivalLane="-E0_1" arrivalPos="76.80" arrivalPosLat="0.00" arrivalSpeed="9.74" duration="51.00" routeLength="357.69" waitingTime="1.00" waitingCount="1" stopTime="0.00" timeLoss="12.22" rerouteNo="0" devices="tripinfo_-E6__0__motorbike.1 emissions_-E6__0__motorbike.1" vType="motorbike" speedFactor="0.88" vaporized="">
        <emissions CO_abs="703.84" CO2_abs="72200.57" HC_abs="922.44" PMx_abs="19.62" NOx_abs="60.82" fuel_abs="23411.72" electricity_abs="0.00"/>
    </tripinfo>
    <tripinfo id="-E2__0__motorbike.3" depart="26.00" departLane="-E2_3" departPos="2.10" departPosLat="0.00" departSpeed="0.00" departDelay="0.10" arrival="72.00" arrivalLane="E6_3" arrivalPos="109.06" arrivalPosLat="0.00" arrivalSpeed="10.17" duration="46.00" routeLength="397.25" waitingTime="0.00" waitingCount="0" stopTime="0.00" timeLoss="8.83" rerouteNo="0" devices="tripinfo_-E2__0__motorbike.3 emissions_-E2__0__motorbike.3" vType="motorbike" speedFactor="0.98" vaporized="">
        <emissions CO_abs="1010.22" CO2_abs="70860.12" HC_abs="889.20" PMx_abs="18.94" NOx_abs="69.15" fuel_abs="22977.04" electricity_abs="0.00"/>
    </tripinfo>
    <tripinfo id="-E1__0__car.3" depart="45.00" departLane="-E1_1" departPos="4.60" departPosLat="0.00" departSpeed="0.00" departDelay="0.54" arrival="72.00" arrivalLane="E2_1" arrivalPos="100.88" arrivalPosLat="0.00" arrivalSpeed="10.99" duration="27.00" routeLength="212.32" waitingTime="0.00" waitingCount="0" stopTime="0.00" timeLoss="7.16" rerouteNo="0" devices="tripinfo_-E1__0__car.3 emissions_-E1__0__car.3" vType="car" speedFactor="1.18" vaporized="">
        <emissions CO_abs="225.43" CO2_abs="70331.19" HC_abs="1.50" PMx_abs="5.43" NOx_abs="22.65" fuel_abs="22800.36" electricity_abs="0.00"/>
    </tripinfo>
    <tripinfo id="E0__0__motorbike.9" depart="47.00" departLane="E0_1" departPos="2.10" departPosLat="0.00" departSpeed="0.00" departDelay="0.98" arrival="73.00" arrivalLane="E1_1" arrivalPos="107.01" arrivalPosLat="0.00" arrivalSpeed="11.02" duration="26.00" routeLength="190.74" waitingTime="0.00" waitingCount="0" stopTime="0.00" timeLoss="7.68" rerouteNo="0" devices="tripinfo_E0__0__motorbike.9 emissions_E0__0__motorbike.9" vType="motorbike" speedFactor="1.12" vaporized="">
        <emissions CO_abs="567.38" CO2_abs="46943.90" HC_abs="582.45" PMx_abs="12.48" NOx_abs="42.86" fuel_abs="15221.98" electricity_abs="0.00"/>
    </tripinfo>
    <tripinfo id="-E6__0__motorbike.2" depart="30.00" departLane="-E6_1" departPos="2.10" departPosLat="0.00" departSpeed="0.00" departDelay="0.17" arrival="74.00" arrivalLane="-E0_1" arrivalPos="76.80" arrivalPosLat="0.00" arrivalSpeed="11.00" duration="44.00" routeLength="357.69" waitingTime="0.00" waitingCount="0" stopTime="0.00" timeLoss="9.94" rerouteNo="0" devices="tripinfo_-E6__0__motorbike.2 emissions_-E6__0__motorbike.2" vType="motorbike" speedFactor="1.05" vaporized="">
        <emissions CO_abs="1010.74" CO2_abs="72878.76" HC_abs="916.14" PMx_abs="19.50" NOx_abs="70.27" fuel_abs="23631.61" electricity_abs="0.00"/>
    </tripinfo>
    <tripinfo id="E0__0__motorbike.10" depart="49.00" departLane="E0_3" departPos="2.10" departPosLat="0.00" departSpeed="0.00" departDelay="0.86" arrival="76.00" arrivalLane="E1_1" arrivalPos="107.01" arrivalPosLat="0.00" arrivalSpeed="10.23" duration="27.00" routeLength="190.74" waitingTime="0.00" waitingCount="0" stopTime="0.00" timeLoss="6.87" rerouteNo="0" devices="tripinfo_E0__0__motorbike.10 emissions_E0__0__motorbike.10" vType="motorbike" speedFactor="0.93" vaporized="">
        <emissions CO_abs="535.34" CO2_abs="49566.72" HC_abs="624.51" PMx_abs="13.49" NOx_abs="42.87" fuel_abs="16072.50" electricity_abs="0.00"/>
    </tripinfo>
    <tripinfo id="-E4__0__motorbike.5" depart="47.00" departLane="-E4_1" departPos="2.10" departPosLat="0.00" departSpeed="0.00" departDelay="0.98" arrival="80.00" arrivalLane="E5_2" arrivalPos="146.08" arrivalPosLat="0.00" arrivalSpeed="9.26" duration="33.00" routeLength="253.66" waitingTime="0.00" waitingCount="0" stopTime="0.00" timeLoss="6.04" rerouteNo="0" devices="tripinfo_-E4__0__motorbike.5 emissions_-E4__0__motorbike.5" vType="motorbike" speedFactor="0.87" vaporized="">
        <emissions CO_abs="498.26" CO2_abs="47606.75" HC_abs="599.59" PMx_abs="12.93" NOx_abs="41.15" fuel_abs="15436.95" electricity_abs="0.00"/>
    </tripinfo>
    <tripinfo id="-E4__0__motorbike.6" depart="49.00" departLane="-E4_3" departPos="2.10" departPosLat="0.00" departSpeed="0.00" departDelay="0.77" arrival="81.00" arrivalLane="E5_1" arrivalPos="146.08" arrivalPosLat="0.00" arrivalSpeed="10.74" duration="32.00" routeLength="253.66" waitingTime="0.00" waitingCount="0" stopTime="0.00" timeLoss="7.99" rerouteNo="0" devices="tripinfo_-E4__0__motorbike.6 emissions_-E4__0__motorbike.6" vType="motorbike" speedFactor="1.07" vaporized="">
        <emissions CO_abs="654.90" CO2_abs="50885.53" HC_abs="635.50" PMx_abs="13.61" NOx_abs="47.28" fuel_abs="16500.10" electricity_abs="0.00"/>
    </tripinfo>
    <tripinfo id="-E1__0__motorbike.6" depart="53.00" departLane="-E1_2" departPos="2.10" departPosLat="0.00" departSpeed="0.00" departDelay="0.87" arrival="81.00" arrivalLane="E2_1" arrivalPos="100.88" arrivalPosLat="0.00" arrivalSpeed="9.99" duration="28.00" routeLength="214.82" waitingTime="0.00" waitingCount="0" stopTime="0.00" timeLoss="6.38" rerouteNo="0" devices="tripinfo_-E1__0__motorbike.6 emissions_-E1__0__motorbike.6" vType="motorbike" speedFactor="0.96" vaporized="">
        <emissions CO_abs="521.64" CO2_abs="44699.76" HC_abs="552.34" PMx_abs="11.90" NOx_abs="40.27" fuel_abs="14494.30" electricity_abs="0.00"/>
    </tripinfo>
    <tripinfo id="-E5__0__car.3" depart="50.00" departLane="-E5_3" departPos="4.60" departPosLat="0.00" departSpeed="0.00" departDelay="0.86" arrival="83.00" arrivalLane="E6_1" arrivalPos="109.06" arrivalPosLat="0.00" arrivalSpeed="9.68" duration="33.00" routeLength="259.57" waitingTime="0.00" waitingCount="0" stopTime="0.00" timeLoss="5.98" rerouteNo="0" devices="tripinfo_-E5__0__car.3 emissions_-E5__0__car.3" vType="car" speedFactor="0.91" vaporized="">
        <emissions CO_abs="214.16" CO2_abs="74374.12" HC_abs="1.43" PMx_abs="5.96" NOx_abs="24.15" fuel_abs="24111.06" electricity_abs="0.00"/>
    </tripinfo>
    <tripinfo id="-E4__0__car.2" depart="52.00" departLane="-E4_3" departPos="4.60" departPosLat="0.00" departSpeed="0.00" departDelay="0.48" arrival="83.00" arrivalLane="E5_2" arrivalPos="146.08" arrivalPosLat="0.00" arrivalSpeed="10.72" duration="31.00" routeLength="251.16" waitingTime="0.00" waitingCount="0" stopTime="0.00" timeLoss="7.24" rerouteNo="0" devices="tripinfo_-E4__0__car.2 emissions_-E4__0__car.2" vType="car" speedFactor="0.98" vaporized="">
        <emissions CO_abs="250.29" CO2_abs="78258.60" HC_abs="1.67" PMx_abs="6.11" NOx_abs="25.35" fuel_abs="25370.33" electricity_abs="0.00"/>
    </tripinfo>
    <tripinfo id="-E1__0__motorbike.1" depart="16.00" departLane="-E1_1" departPos="2.10" departPosLat="0.00" departSpeed="0.00" departDelay="0.07" arrival="85.00" arrivalLane="-E0_3" arrivalPos="76.80" arrivalPosLat="0.00" arrivalSpeed="9.38" duration="69.00" routeLength="206.22" waitingTime="38.00" waitingCount="1" stopTime="0.00" timeLoss="47.10" rerouteNo="0" devices="tripinfo_-E1__0__motorbike.1 emissions_-E1__0__motorbike.1" vType="motorbike" speedFactor="0.88" vaporized="">
        <emissions CO_abs="443.09" CO2_abs="104004.88" HC_abs="1535.10" PMx_abs="32.23" NOx_abs="60.21" fuel_abs="33725.15" electricity_abs="0.00"/>
    </tripinfo>
    <tripinfo id="-E5__0__car.5" depart="55.00" departLane="-E5_3" departPos="4.60" departPosLat="0.00" departSpeed="0.00" departDelay="1.53" arrival="86.00" arrivalLane="E6_1" arrivalPos="109.06" arrivalPosLat="0.00" arrivalSpeed="10.28" duration="31.00" routeLength="259.57" waitingTime="0.00" waitingCount="0" stopTime="0.00" timeLoss="6.42" rerouteNo="0" devices="tripinfo_-E5__0__car.5 emissions_-E5__0__car.5" vType="car" speedFactor="0.99" vaporized="">
        <emissions CO_abs="247.90" CO2_abs="75666.46" HC_abs="1.65" PMx_abs="6.13" NOx_abs="24.54" fuel_abs="24530.00" electricity_abs="0.00"/>
    </tripinfo>
    <tripinfo id="-E1__0__car.2" depart="30.00" departLane="-E1_1" departPos="4.60" departPosLat="0.00" departSpeed="0.00" departDelay="1.21" arrival="87.00" arrivalLane="-E0_3" arrivalPos="76.80" arrivalPosLat="0.00" arrivalSpeed="10.72" duration="57.00" routeLength="203.72" waitingTime="26.00" waitingCount="1" stopTime="0.00" timeLoss="38.05" rerouteNo="0" devices="tripinfo_-E1__0__car.2 emissions_-E1__0__car.2" vType="car" speedFactor="1.18" vaporized="">
        <emissions CO_abs="231.17" CO2_abs="120682.10" HC_abs="1.53" PMx_abs="5.34" NOx_abs="41.84" fuel_abs="39123.66" electricity_abs="0.00"/>
    </tripinfo>
    <tripinfo id="-E4__0__car.1" depart="24.00" departLane="-E4_3" departPos="4.60" departPosLat="0.00" departSpeed="0.00" departDelay="0.65" arrival="88.00" arrivalLane="E6_2" arrivalPos="109.06" arrivalPosLat="0.00" arrivalSpeed="10.67" duration="64.00" routeLength="232.31" waitingTime="31.00" waitingCount="1" stopTime="0.00" timeLoss="42.28" rerouteNo="0" devices="tripinfo_-E4__0__car.1 emissions_-E4__0__car.1" vType="car" speedFactor="1.02" vaporized="">
        <emissions CO_abs="253.69" CO2_abs="132705.87" HC_abs="1.69" PMx_abs="6.14" NOx_abs="46.62" fuel_abs="43021.69" electricity_abs="0.00"/>
    </tripinfo>
    <tripinfo id="-E4__0__car.3" depart="54.00" departLane="-E4_2" departPos="4.60" departPosLat="0.00" departSpeed="0.00" departDelay="0.55" arrival="88.00" arrivalLane="E5_1" arrivalPos="146.08" arrivalPosLat="0.00" arrivalSpeed="10.98" duration="34.00" routeLength="251.16" waitingTime="1.00" waitingCount="1" stopTime="0.00" timeLoss="10.38" rerouteNo="0" devices="tripinfo_-E4__0__car.3 emissions_-E4__0__car.3" vType="car" speedFactor="1.05" vaporized="">
        <emissions CO_abs="253.66" CO2_abs="82300.36" HC_abs="1.68" PMx_abs="6.10" NOx_abs="26.83" fuel_abs="26680.54" electricity_abs="0.00"/>
    </tripinfo>