<?xml version="1.0" encoding="UTF-8"?>

<!-- generated on 2025-12-29T08:58:54.167729+07:00 by Eclipse SUMO GUI 1.25.0
<sumoConfiguration xmlns:xsi="http://www.w3.org/2001/XMLSchema-instance" xsi:noNamespaceSchemaLocation="http://sumo.dlr.de/xsd/sumoConfiguration.xsd">

    <input>
        <net-file value="./Scenario/test/env/test.net.xml"/>
        <route-files value="./Scenario/test/env/../routes/vehicle.rou.xml"/>
        <additional-files value="./Scenario/test/env/../add/tls.add.xml,./Scenario/test/env/ ../add/e2.add.xml"/>
    </input>

    <output>
        <netstate-dump value="./Scenario/test/env/../output/e2.netstate.xml"/>
        <netstate-dump.precision value="2"/>
        <summary-output value="./Scenario/test/env/../output/e2_summary.output.xml"/>
        <tripinfo-output value="./Scenario/test/env/../output/e2.tripinfo.xml"/>
    </output>

    <time>
        <begin value="0"/>
        <end value="500"/>
        <step-length value="1.0"/>
    </time>

    <processing>
        <lateral-resolution value="0.2"/>
    </processing>

</sumoConfiguration>
-->

<tripinfos xmlns:xsi="http://www.w3.org/2001/XMLSchema-instance" xsi:noNamespaceSchemaLocation="http://sumo.dlr.de/xsd/tripinfo_file.xsd">
    <tripinfo id="E0__0__motorbike.1" depart="1.00" departLane="E0_1" departPos="2.10" departPosLat="0.00" departSpeed="0.00" departDelay="0.81" arrival="26.00" arrivalLane="E1_1" arrivalPos="107.01" arrivalPosLat="0.00" arrivalSpeed="10.85" duration="25.00" routeLength="190.74" waitingTime="0.00" waitingCount="0" stopTime="0.00" timeLoss="6.38" rerouteNo="0" devices="tripinfo_E0__0__motorbike.1" vType="motorbike" speedFactor="1.08" vaporized=""/>
    <tripinfo id="E0__0__motorbike.2" depart="2.00" departLane="E0_2" departPos="2.10" departPosLat="0.00" departSpeed="0.00" departDelay="0.28" arrival="28.00" arrivalLane="E1_1" arrivalPos="107.01" arrivalPosLat="0.00" arrivalSpeed="9.98" duration="26.00" routeLength="190.74" waitingTime="0.00" waitingCount="0" stopTime="0.00" timeLoss="6.82" rerouteNo="0" devices="tripinfo_E0__0__motorbike.2" vType="motorbike" speedFactor="0.94" vaporized=""/>
    <tripinfo id="E0__0__car.0" depart="5.00" departLane="E0_2" departPos="4.60" departPosLat="0.00" departSpeed="0.00" departDelay="0.16" arrival="30.00" arrivalLane="E1_1" arrivalPos="107.01" arrivalPosLat="0.00" arrivalSpeed="10.27" duration="25.00" routeLength="188.24" waitingTime="0.00" waitingCount="0" stopTime="0.00" timeLoss="5.88" rerouteNo="0" devices="tripinfo_E0__0__car.0" vType="car" speedFactor="0.93" vaporized=""/>
    <tripinfo id="-E1__0__motorbike.0" depart="4.00" departLane="-E1_3" departPos="2.10" departPosLat="0.00" departSpeed="0.00" departDelay="0.42" arrival="31.00" arrivalLane="E2_1" arrivalPos="100.88" arrivalPosLat="0.00" arrivalSpeed="10.59" duration="27.00" routeLength="214.82" waitingTime="0.00" waitingCount="0" stopTime="0.00" timeLoss="6.41" rerouteNo="0" devices="tripinfo_-E1__0__motorbike.0" vType="motorbike" speedFactor="1.05" vaporized=""/>
    <tripinfo id="-E2__0__car.0" depart="7.00" departLane="-E2_2" departPos="4.60" departPosLat="0.00" departSpeed="0.00" departDelay="1.01" arrival="31.00" arrivalLane="-E0_2" arrivalPos="76.80" arrivalPosLat="0.00" arrivalSpeed="10.40" duration="24.00" routeLength="200.28" waitingTime="0.00" waitingCount="0" stopTime="0.00" timeLoss="4.62" rerouteNo="0" devices="tripinfo_-E2__0__car.0" vType="car" speedFactor="0.94" vaporized=""/>
    <tripinfo id="-E4__0__motorbike.0" depart="1.00" departLane="-E4_2" departPos="2.10" departPosLat="0.00" departSpeed="0.00" departDelay="0.97" arrival="32.00" arrivalLane="E5_2" arrivalPos="146.08" arrivalPosLat="0.00" arrivalSpeed="9.79" duration="31.00" routeLength="253.66" waitingTime="0.00" waitingCount="0" stopTime="0.00" timeLoss="5.68" rerouteNo="0" devices="tripinfo_-E4__0__motorbike.0" vType="motorbike" speedFactor="0.94" vaporized=""/>
    <tripinfo id="-E5__0__car.0" depart="1.00" departLane="-E5_3" departPos="4.60" departPosLat="0.00" departSpeed="0.00" departDelay="0.71" arrival="32.00" arrivalLane="E6_1" arrivalPos="109.06" arrivalPosLat="0.00" arrivalSpeed="10.71" duration="31.00" routeLength="259.57" waitingTime="0.00" waitingCount="0" stopTime="0.00" timeLoss="6.20" rerouteNo="0" devices="tripinfo_-E5__0__car.0" vType="car" speedFactor="1.03" vaporized=""/>
    <tripinfo id="-E2__0__motorbike.3" depart="9.00" departLane="-E2_1" departPos="2.10" departPosLat="0.00" departSpeed="0.00" departDelay="1.05" arrival="33.00" arrivalLane="-E0_2" arrivalPos="76.80" arrivalPosLat="0.00" arrivalSpeed="10.49" duration="24.00" routeLength="202.78" waitingTime="0.00" waitingCount="0" stopTime="0.00" timeLoss="4.75" rerouteNo="0" devices="tripinfo_-E2__0__motorbike.3" vType="motorbike" speedFactor="0.97" vaporized=""/>
    <tripinfo id="-E1__0__motorbike.2" depart="7.00" departLane="-E1_2" departPos="2.10" departPosLat="0.00" departSpeed="0.00" departDelay="0.20" arrival="34.00" arrivalLane="E2_1" arrivalPos="100.88" arrivalPosLat="0.00" arrivalSpeed="11.05" duration="27.00" routeLength="214.82" waitingTime="0.00" waitingCount="0" stopTime="0.00" timeLoss="6.64" rerouteNo="0" devices="tripinfo_-E1__0__motorbike.2" vType="motorbike" speedFactor="1.02" vaporized=""/>
    <tripinfo id="-E4__0__motorbike.1" depart="6.00" departLane="-E4_3" departPos="2.10" departPosLat="0.00" departSpeed="0.00" departDelay="1.46" arrival="36.00" arrivalLane="E5_2" arrivalPos="146.08" arrivalPosLat="0.00" arrivalSpeed="10.94" duration="30.00" routeLength="253.66" waitingTime="0.00" waitingCount="0" stopTime="0.00" timeLoss="6.09" rerouteNo="0" devices="tripinfo_-E4__0__motorbike.1" vType="motorbike" speedFactor="0.99" vaporized=""/>
    <tripinfo id="-E1__0__car.0" depart="8.00" departLane="-E1_1" departPos="4.60" departPosLat="0.00" departSpeed="0.00" departDelay="0.29" arrival="37.00" arrivalLane="E2_1" arrivalPos="100.88" arrivalPosLat="0.00" arrivalSpeed="11.03" duration="29.00" routeLength="212.32" waitingTime="0.00" waitingCount="0" stopTime="0.00" timeLoss="8.72" rerouteNo="0" devices="tripinfo_-E1__0__car.0" vType="car" speedFactor="1.01" vaporized=""/>
    <tripinfo id="-E1__0__motorbike.1" depart="7.00" departLane="-E1_3" departPos="2.10" departPosLat="0.00" departSpeed="0.00" departDelay="0.46" arrival="39.00" arrivalLane="E2_1" arrivalPos="100.88" arrivalPosLat="0.00" arrivalSpeed="10.98" duration="32.00" routeLength="214.82" waitingTime="1.00" waitingCount="1" stopTime="0.00" timeLoss="11.29" rerouteNo="0" devices="tripinfo_-E1__0__motorbike.1" vType="motorbike" speedFactor="1.16" vaporized=""/>
    <tripinfo id="-E4__0__car.1" depart="7.00" departLane="-E4_1" departPos="4.60" departPosLat="0.00" departSpeed="0.00" departDelay="3.57" arrival="40.00" arrivalLane="E5_1" arrivalPos="146.08" arrivalPosLat="0.00" arrivalSpeed="10.89" duration="33.00" routeLength="251.16" waitingTime="0.00" waitingCount="0" stopTime="0.00" timeLoss="9.46" rerouteNo="0" devices="tripinfo_-E4__0__car.1" vType="car" speedFactor="1.09" vaporized=""/>
    <tripinfo id="E0__0__motorbike.5" depart="15.00" departLane="E0_2" departPos="2.10" departPosLat="0.00" departSpeed="0.00" departDelay="0.99" arrival="41.00" arrivalLane="E1_1" arrivalPos="107.01" arrivalPosLat="0.00" arrivalSpeed="10.45" duration="26.00" routeLength="190.74" waitingTime="0.00" waitingCount="0" stopTime="0.00" timeLoss="7.62" rerouteNo="0" devices="tripinfo_E0__0__motorbike.5" vType="motorbike" speedFactor="1.18" vaporized=""/>
    <tripinfo id="-E4__0__car.2" depart="5.00" departLane="-E4_2" departPos="4.60" departPosLat="0.00" departSpeed="0.00" departDelay="1.53" arrival="42.00" arrivalLane="E5_2" arrivalPos="146.08" arrivalPosLat="0.00" arrivalSpeed="10.62" duration="37.00" routeLength="251.16" waitingTime="1.00" waitingCount="1" stopTime="0.00" timeLoss="12.84" rerouteNo="0" devices="tripinfo_-E4__0__car.2" vType="car" speedFactor="1.03" vaporized=""/>
    <tripinfo id="-E5__0__motorbike.0" depart="9.00" departLane="-E5_3" departPos="2.10" departPosLat="0.00" departSpeed="0.00" departDelay="0.54" arrival="43.00" arrivalLane="E6_1" arrivalPos="109.06" arrivalPosLat="0.00" arrivalSpeed="9.59" duration="34.00" routeLength="262.07" waitingTime="0.00" waitingCount="0" stopTime="0.00" timeLoss="6.58" rerouteNo="0" devices="tripinfo_-E5__0__motorbike.0" vType="motorbike" speedFactor="0.89" vaporized=""/>
    <tripinfo id="-E1__0__motorbike.4" depart="13.00" departLane="-E1_2" departPos="2.10" departPosLat="0.00" departSpeed="0.00" departDelay="1.97" arrival="43.00" arrivalLane="E2_1" arrivalPos="100.88" arrivalPosLat="0.00" arrivalSpeed="10.48" duration="30.00" routeLength="214.82" waitingTime="0.00" waitingCount="0" stopTime="0.00" timeLoss="9.71" rerouteNo="0" devices="tripinfo_-E1__0__motorbike.4" vType="motorbike" speedFactor="1.15" vaporized=""/>
    <tripinfo id="-E4__0__motorbike.3" depart="12.00" departLane="-E4_1" departPos="2.10" departPosLat="0.00" departSpeed="0.00" departDelay="0.74" arrival="44.00" arrivalLane="E5_2" arrivalPos="146.08" arrivalPosLat="0.00" arrivalSpeed="11.10" duration="32.00" routeLength="253.66" waitingTime="0.00" waitingCount="0" stopTime="0.00" timeLoss="7.65" rerouteNo="0" devices="tripinfo_-E4__0__motorbike.3" vType="motorbike" speedFactor="1.01" vaporized=""/>
    <tripinfo id="-E6__0__motorbike.0" depart="1.00" departLane="-E6_3" departPos="2.10" departPosLat="0.00" departSpeed="0.00" departDelay="0.98" arrival="46.00" arrivalLane="E1_2" arrivalPos="107.01" arrivalPosLat="0.00" arrivalSpeed="10.92" duration="45.00" routeLength="406.07" waitingTime="0.00" waitingCount="0" stopTime="0.00" timeLoss="6.97" rerouteNo="0" devices="tripinfo_-E6__0__motorbike.0" vType="motorbike" speedFactor="1.06" vaporized=""/>
    <tripinfo id="-E1__0__motorbike.3" depart="11.00" departLane="-E1_3" departPos="2.10" departPosLat="0.00" departSpeed="0.00" departDelay="0.12" arrival="47.00" arrivalLane="E2_1" arrivalPos="100.88" arrivalPosLat="0.00" arrivalSpeed="10.73" duration="36.00" routeLength="214.82" waitingTime="2.00" waitingCount="2" stopTime="0.00" timeLoss="15.84" rerouteNo="0" devices="tripinfo_-E1__0__motorbike.3" vType="motorbike" speedFactor="1.18" vaporized=""/>
    <tripinfo id="-E4__0__car.3" depart="15.00" departLane="-E4_3" departPos="4.60" departPosLat="0.00" departSpeed="0.00" departDelay="2.59" arrival="47.00" arrivalLane="E5_2" arrivalPos="146.08" arrivalPosLat="0.00" arrivalSpeed="10.42" duration="32.00" routeLength="251.16" waitingTime="0.00" waitingCount="0" stopTime="0.00" timeLoss="8.06" rerouteNo="0" devices="tripinfo_-E4__0__car.3" vType="car" speedFactor="1.02" vaporized=""/>
    <tripinfo id="-E5__0__car.1" depart="10.00" departLane="-E5_2" departPos="4.60" departPosLat="0.00" departSpeed="0.00" departDelay="1.47" arrival="48.00" arrivalLane="E6_1" arrivalPos="109.06" arrivalPosLat="0.00" arrivalSpeed="8.49" duration="38.00" routeLength="259.57" waitingTime="0.00" waitingCount="0" stopTime="0.00" timeLoss="8.46" rerouteNo="0" devices="tripinfo_-E5__0__car.1" vType="car" speedFactor="0.83" vaporized=""/>
    <tripinfo id="-E4__0__car.5" depart="17.00" departLane="-E4_1" departPos="4.60" departPosLat="0.00" departSpeed="0.00" departDelay="0.54" arrival="48.00" arrivalLane="E5_1" arrivalPos="146.08" arrivalPosLat="0.00" arrivalSpeed="10.66" duration="31.00" routeLength="251.16" waitingTime="0.00" waitingCount="0" stopTime="0.00" timeLoss="7.29" rerouteNo="0" devices="tripinfo_-E4__0__car.5" vType="car" speedFactor="1.09" vaporized=""/>
    <tripinfo id="-E6__0__motorbike.1" depart="2.00" departLane="-E6_2" departPos="2.10" departPosLat="0.00" departSpeed="0.00" departDelay="0.52" arrival="49.00" arrivalLane="E4_2" arrivalPos="100.65" arrivalPosLat="-1.60" arrivalSpeed="10.79" duration="47.00" routeLength="234.81" waitingTime="8.00" waitingCount="3" stopTime="0.00" timeLoss="25.13" rerouteNo="0" devices="tripinfo_-E6__0__motorbike.1" vType="motorbike" speedFactor="1.05" vaporized=""/>
    <tripinfo id="-E2__0__motorbike.1" depart="5.00" departLane="-E2_3" departPos="2.10" departPosLat="0.00" departSpeed="0.00" departDelay="0.84" arrival="49.00" arrivalLane="E4_1" arrivalPos="100.65" arrivalPosLat="0.00" arrivalSpeed="10.42" duration="44.00" routeLength="373.36" waitingTime="0.00" waitingCount="0" stopTime="0.00" timeLoss="9.17" rerouteNo="0" devices="tripinfo_-E2__0__motorbike.1" vType="motorbike" speedFactor="1.12" vaporized=""/>
    <tripinfo id="-E5__0__motorbike.1" depart="15.00" departLane="-E5_2" departPos="2.10" departPosLat="0.00" departSpeed="0.00" departDelay="0.64" arrival="49.00" arrivalLane="E6_1" arrivalPos="109.06" arrivalPosLat="0.00" arrivalSpeed="9.19" duration="34.00" routeLength="262.07" waitingTime="0.00" waitingCount="0" stopTime="0.00" timeLoss="7.05" rerouteNo="0" devices="tripinfo_-E5__0__motorbike.1" vType="motorbike" speedFactor="0.90" vaporized=""/>
    <tripinfo id="E0__0__motorbike.6" depart="24.00" departLane="E0_2" departPos="2.10" departPosLat="0.00" departSpeed="0.00" departDelay="0.84" arrival="49.00" arrivalLane="E1_1" arrivalPos="107.01" arrivalPosLat="0.00" arrivalSpeed="10.53" duration="25.00" routeLength="190.74" waitingTime="0.00" waitingCount="0" stopTime="0.00" timeLoss="6.52" rerouteNo="0" devices="tripinfo_E0__0__motorbike.6" vType="motorbike" speedFactor="0.97" vaporized=""/>
    <tripinfo id="-E6__0__motorbike.2" depart="3.00" departLane="-E6_3" departPos="2.10" departPosLat="0.00" departSpeed="0.00" departDelay="0.69" arrival="50.00" arrivalLane="E4_2" arrivalPos="100.65" arrivalPosLat="0.00" arrivalSpeed="9.01" duration="47.00" routeLength="234.81" waitingTime="12.00" waitingCount="1" stopTime="0.00" timeLoss="21.82" rerouteNo="0" devices="tripinfo_-E6__0__motorbike.2" vType="motorbike" speedFactor="0.86" vaporized=""/>
    <tripinfo id="-E5__0__motorbike.2" depart="17.00" departLane="-E5_2" departPos="2.10" departPosLat="0.00" departSpeed="0.00" departDelay="0.74" arrival="50.00" arrivalLane="E6_1" arrivalPos="109.06" arrivalPosLat="1.05" arrivalSpeed="10.57" duration="33.00" routeLength="262.07" waitingTime="0.00" waitingCount="0" stopTime="0.00" timeLoss="8.65" rerouteNo="0" devices="tripinfo_-E5__0__motorbike.2" vType="motorbike" speedFactor="1.04" vaporized=""/>
    <tripinfo id="-E1__0__motorbike.7" depart="18.00" departLane="-E1_3" departPos="2.10" departPosLat="0.00" departSpeed="0.00" departDelay="0.63" arrival="51.00" arrivalLane="E2_1" arrivalPos="100.88" arrivalPosLat="0.00" arrivalSpeed="9.23" duration="33.00" routeLength="214.82" waitingTime="0.00" waitingCount="0" stopTime="0.00" timeLoss="9.70" rerouteNo="0" devices="tripinfo_-E1__0__motorbike.7" vType="motorbike" speedFactor="0.85" vaporized=""/>
    <tripinfo id="-E6__0__motorbike.6" depart="24.00" departLane="-E6_3" departPos="2.10" departPosLat="0.00" departSpeed="0.00" departDelay="0.62" arrival="51.00" arrivalLane="E4_2" arrivalPos="100.65" arrivalPosLat="1.05" arrivalSpeed="10.99" duration="27.00" routeLength="234.81" waitingTime="0.00" waitingCount="0" stopTime="0.00" timeLoss="4.93" rerouteNo="0" devices="tripinfo_-E6__0__motorbike.6" vType="motorbike" speedFactor="1.12" vaporized=""/>
    <tripinfo id="-E2__0__motorbike.2" depart="6.00" departLane="-E2_1" departPos="2.10" departPosLat="0.00" departSpeed="0.00" departDelay="0.32" arrival="52.00" arrivalLane="E4_1" arrivalPos="100.65" arrivalPosLat="0.00" arrivalSpeed="10.14" duration="46.00" routeLength="373.36" waitingTime="0.00" waitingCount="0" stopTime="0.00" timeLoss="8.95" rerouteNo="0" devices="tripinfo_-E2__0__motorbike.2" vType="motorbike" speedFactor="0.94" vaporized=""/>
    <tripinfo id="-E5__0__car.3" depart="20.00" departLane="-E5_3" departPos="4.60" departPosLat="0.00" departSpeed="0.00" departDelay="2.14" arrival="52.00" arrivalLane="E6_1" arrivalPos="109.06" arrivalPosLat="0.00" arrivalSpeed="10.86" duration="32.00" routeLength="259.57" waitingTime="0.00" waitingCount="0" stopTime="0.00" timeLoss="7.89" rerouteNo="0" devices="tripinfo_-E5__0__car.3" vType="car" speedFactor="1.17" vaporized=""/>
    <tripinfo id="-E4__0__motorbike.6" depart="19.00" departLane="-E4_2" departPos="2.10" departPosLat="0.00" departSpeed="0.00" departDelay="0.16" arrival="52.00" arrivalLane="E5_2" arrivalPos="146.08" arrivalPosLat="0.00" arrivalSpeed="10.55" duration="33.00" routeLength="253.66" waitingTime="0.00" waitingCount="0" stopTime="0.00" timeLoss="8.50" rerouteNo="0" devices="tripinfo_-E4__0__motorbike.6" vType="motorbike" speedFactor="1.02" vaporized=""/>
    <tripinfo id="-E6__0__motorbike.5" depart="21.00" departLane="-E6_2" departPos="2.10" departPosLat="0.00" departSpeed="0.00" departDelay="1.60" arrival="52.00" arrivalLane="E5_3" arrivalPos="146.08" arrivalPosLat="0.00" arrivalSpeed="10.71" duration="31.00" routeLength="277.55" waitingTime="0.00" waitingCount="0" stopTime="0.00" timeLoss="5.13" rerouteNo="0" devices="tripinfo_-E6__0__motorbike.5" vType="motorbike" speedFactor="1.00" vaporized=""/>
    <tripinfo id="-E1__0__car.2" depart="21.00" departLane="-E1_2" departPos="4.60" departPosLat="0.00" departSpeed="0.00" departDelay="1.72" arrival="53.00" arrivalLane="E2_1" arrivalPos="100.88" arrivalPosLat="0.00" arrivalSpeed="10.68" duration="32.00" routeLength="212.32" waitingTime="0.00" waitingCount="0" stopTime="0.00" timeLoss="12.04" rerouteNo="0" devices="tripinfo_-E1__0__car.2" vType="car" speedFactor="1.00" vaporized=""/>
    <tripinfo id="-E6__0__car.1" depart="10.00" departLane="-E6_2" departPos="4.60" departPosLat="0.00" departSpeed="0.00" departDelay="0.41" arrival="54.00" arrivalLane="-E0_1" arrivalPos="76.80" arrivalPosLat="0.00" arrivalSpeed="9.87" duration="44.00" routeLength="355.19" waitingTime="0.00" waitingCount="0" stopTime="0.00" timeLoss="7.59" rerouteNo="0" devices="tripinfo_-E6__0__car.1" vType="car" speedFactor="0.92" vaporized=""/>
    <tripinfo id="-E6__0__motorbike.7" depart="26.00" departLane="-E6_1" departPos="2.10" departPosLat="0.00" departSpeed="0.00" departDelay="0.15" arrival="54.00" arrivalLane="E4_2" arrivalPos="100.65" arrivalPosLat="0.00" arrivalSpeed="10.00" duration="28.00" routeLength="234.81" waitingTime="0.00" waitingCount="0" stopTime="0.00" timeLoss="4.54" rerouteNo="0" devices="tripinfo_-E6__0__motorbike.7" vType="motorbike" speedFactor="0.91" vaporized=""/>
    <tripinfo id="-E6__0__car.0" depart="6.00" departLane="-E6_1" departPos="4.60" departPosLat="0.00" departSpeed="0.00" departDelay="0.59" arrival="55.00" arrivalLane="E2_3" arrivalPos="100.88" arrivalPosLat="0.00" arrivalSpeed="9.40" duration="49.00" routeLength="394.75" waitingTime="0.00" waitingCount="0" stopTime="0.00" timeLoss="7.20" rerouteNo="0" devices="tripinfo_-E6__0__car.0" vType="car" speedFactor="0.88" vaporized=""/>
    <tripinfo id="-E4__0__car.6" depart="21.00" departLane="-E4_1" departPos="4.60" departPosLat="0.00" departSpeed="0.00" departDelay="4.27" arrival="55.00" arrivalLane="E5_2" arrivalPos="146.08" arrivalPosLat="0.00" arrivalSpeed="9.87" duration="34.00" routeLength="251.16" waitingTime="0.00" waitingCount="0" stopTime="0.00" timeLoss="7.63" rerouteNo="0" devices="tripinfo_-E4__0__car.6" vType="car" speedFactor="0.90" vaporized=""/>
    <tripinfo id="-E1__0__motorbike.8" depart="21.00" departLane="-E1_1" departPos="2.10" departPosLat="0.00" departSpeed="0.00" departDelay="0.68" arrival="55.00" arrivalLane="E2_1" arrivalPos="100.88" arrivalPosLat="0.00" arrivalSpeed="10.38" duration="34.00" routeLength="214.82" waitingTime="1.00" waitingCount="1" stopTime="0.00" timeLoss="13.64" rerouteNo="0" devices="tripinfo_-E1__0__motorbike.8" vType="motorbike" speedFactor="1.14" vaporized=""/>
    <tripinfo id="-E4__0__car.7" depart="24.00" departLane="-E4_2" departPos="4.60" departPosLat="0.00" departSpeed="0.00" departDelay="3.50" arrival="55.00" arrivalLane="E5_1" arrivalPos="146.08" arrivalPosLat="0.00" arrivalSpeed="10.39" duration="31.00" routeLength="251.16" waitingTime="0.00" waitingCount="0" stopTime="0.00" timeLoss="7.63" rerouteNo="0" devices="tripinfo_-E4__0__car.7" vType="car" speedFactor="1.02" vaporized=""/>
    <tripinfo id="-E1__0__motorbike.11" depart="27.00" departLane="-E1_3" departPos="2.10" departPosLat="0.00" departSpeed="0.00" departDelay="0.05" arrival="56.00" arrivalLane="E2_1" arrivalPos="100.88" arrivalPosLat="0.00" arrivalSpeed="10.39" duration="29.00" routeLength="214.82" waitingTime="0.00" waitingCount="0" stopTime="0.00" timeLoss="8.52" rerouteNo="0" devices="tripinfo_-E1__0__motorbike.11" vType="motorbike" speedFactor="1.06" vaporized=""/>
    <tripinfo id="-E6__0__car.4" depart="31.00" departLane="-E6_3" departPos="4.60" departPosLat="0.00" departSpeed="0.00" departDelay="0.85" arrival="57.00" arrivalLane="E4_2" arrivalPos="100.65" arrivalPosLat="0.00" arrivalSpeed="11.03" duration="26.00" routeLength="232.31" waitingTime="0.00" waitingCount="0" stopTime="0.00" timeLoss="4.93" rerouteNo="0" devices="tripinfo_-E6__0__car.4" vType="car" speedFactor="1.09" vaporized=""/>
    <tripinfo id="-E6__0__motorbike.3" depart="11.00" departLane="-E6_3" departPos="2.10" departPosLat="0.00" departSpeed="0.00" departDelay="1.41" arrival="58.00" arrivalLane="E1_2" arrivalPos="107.01" arrivalPosLat="0.00" arrivalSpeed="10.53" duration="47.00" routeLength="406.07" waitingTime="0.00" waitingCount="0" stopTime="0.00" timeLoss="7.36" rerouteNo="0" devices="tripinfo_-E6__0__motorbike.3" vType="motorbike" speedFactor="0.95" vaporized=""/>
    <tripinfo id="-E5__0__motorbike.3" depart="26.00" departLane="-E5_3" departPos="2.10" departPosLat="0.00" departSpeed="0.00" departDelay="1.31" arrival="58.00" arrivalLane="E6_1" arrivalPos="109.06" arrivalPosLat="0.00" arrivalSpeed="10.54" duration="32.00" routeLength="262.07" waitingTime="0.00" waitingCount="0" stopTime="0.00" timeLoss="7.21" rerouteNo="0" devices="tripinfo_-E5__0__motorbike.3" vType="motorbike" speedFactor="0.99" vaporized=""/>
    <tripinfo id="-E6__0__car.2" depart="17.00" departLane="-E6_2" departPos="4.60" departPosLat="0.00" departSpeed="0.00" departDelay="0.39" arrival="60.00" arrivalLane="-E0_1" arrivalPos="76.80" arrivalPosLat="0.00" arrivalSpeed="10.53" duration="43.00" routeLength="355.19" waitingTime="0.00" waitingCount="0" stopTime="0.00" timeLoss="9.20" rerouteNo="0" devices="tripinfo_-E6__0__car.2" vType="car" speedFactor="1.00" vaporized=""/>
    <tripinfo id="-E1__0__motorbike.10" depart="28.00" departLane="-E1_2" departPos="2.10" departPosLat="0.00" departSpeed="0.00" departDelay="1.30" arrival="60.00" arrivalLane="E2_1" arrivalPos="100.88" arrivalPosLat="0.00" arrivalSpeed="9.88" duration="32.00" routeLength="214.82" waitingTime="0.00" waitingCount="0" stopTime="0.00" timeLoss="10.76" rerouteNo="0" devices="tripinfo_-E1__0__motorbike.10" vType="motorbike" speedFactor="0.94" vaporized=""/>
    <tripinfo id="-E4__0__motorbike.7" depart="30.00" departLane="-E4_2" departPos="2.10" departPosLat="0.00" departSpeed="0.00" departDelay="0.17" arrival="60.00" arrivalLane="E5_2" arrivalPos="146.08" arrivalPosLat="0.00" arrivalSpeed="10.50" duration="30.00" routeLength="253.66" waitingTime="0.00" waitingCount="0" stopTime="0.00" timeLoss="6.59" rerouteNo="0" devices="tripinfo_-E4__0__motorbike.7" vType="motorbike" speedFactor="1.01" vaporized=""/>
    <tripinfo id="-E6__0__motorbike.8" depart="33.00" departLane="-E6_2" departPos="2.10" departPosLat="0.00" departSpeed="0.00" departDelay="1.59" arrival="60.00" arrivalLane="E4_2" arrivalPos="100.65" arrivalPosLat="0.00" arrivalSpeed="10.70" duration="27.00" routeLength="234.81" waitingTime="0.00" waitingCount="0" stopTime="0.00" timeLoss="4.90" rerouteNo="0" devices="tripinfo_-E6__0__motorbike.8" vType="motorbike" speedFactor="0.97" vaporized=""/>
    <tripinfo id="-E5__0__car.6" depart="28.00" departLane="-E5_2" departPos="4.60" departPosLat="0.00" departSpeed="0.00" departDelay="2.62" arrival="62.00" arrivalLane="E6_1" arrivalPos="109.06" arrivalPosLat="0.00" arrivalSpeed="9.63" duration="34.00" routeLength="259.57" waitingTime="0.00" waitingCount="0" stopTime="0.00" timeLoss="6.48" rerouteNo="0" devices="tripinfo_-E5__0__car.6" vType="car" speedFactor="0.88" vaporized=""/>
    <tripinfo id="-E6__0__motorbike.9" depart="35.00" departLane="-E6_2" departPos="2.10" departPosLat="0.00" departSpeed="0.00" departDelay="1.65" arrival="63.00" arrivalLane="E4_2" arrivalPos="100.65" arrivalPosLat="0.00" arrivalSpeed="11.06" duration="28.00" routeLength="234.81" waitingTime="0.00" waitingCount="0" stopTime="0.00" timeLoss="6.11" rerouteNo="0" devices="tripinfo_-E6__0__motorbike.9" vType="motorbike" speedFactor="1.01" vaporized=""/>
    <tripinfo id="-E5__0__motorbike.5" depart="31.00" departLane="-E5_1" departPos="2.10" departPosLat="0.00" departSpeed="0.00" departDelay="0.49" arrival="64.00" arrivalLane="E6_1" arrivalPos="109.06" arrivalPosLat="0.00" arrivalSpeed="10.94" duration="33.00" routeLength="262.07" waitingTime="0.00" waitingCount="0" stopTime="0.00" timeLoss="7.91" rerouteNo="0" devices="tripinfo_-E5__0__motorbike.5" vType="motorbike" speedFactor="1.03" vaporized=""/>
    <tripinfo id="-E5__0__motorbike.4" depart="29.00" departLane="-E5_3" departPos="2.10" departPosLat="0.00" departSpeed="0.00" departDelay="0.46" arrival="65.00" arrivalLane="E6_2" arrivalPos="109.06" arrivalPosLat="0.00" arrivalSpeed="10.57" duration="36.00" routeLength="262.07" waitingTime="0.00" waitingCount="0" stopTime="0.00" timeLoss="11.64" rerouteNo="0" devices="tripinfo_-E5__0__motorbike.4" vType="motorbike" speedFactor="1.03" vaporized=""/>
    <tripinfo id="E0__0__motorbike.11" depart="40.00" departLane="E0_1" departPos="2.10" departPosLat="0.00" departSpeed="0.00" departDelay="0.48" arrival="65.00" arrivalLane="E1_1" arrivalPos="107.01" arrivalPosLat="0.00" arrivalSpeed="10.39" duration="25.00" routeLength="190.74" waitingTime="0.00" waitingCount="0" stopTime="0.00" timeLoss="6.57" rerouteNo="0" devices="tripinfo_E0__0__motorbike.11" vType="motorbike" speedFactor="1.10" vaporized=""/>
    <tripinfo id="-E6__0__motorbike.11" depart="35.00" departLane="-E6_1" departPos="2.10" departPosLat="0.00" departSpeed="0.00" departDelay="0.65" arrival="66.00" arrivalLane="E4_2" arrivalPos="100.65" arrivalPosLat="0.00" arrivalSpeed="9.72" duration="31.00" routeLength="234.81" waitingTime="0.00" waitingCount="0" stopTime="0.00" timeLoss="7.13" rerouteNo="0" devices="tripinfo_-E6__0__motorbike.11" vType="motorbike" speedFactor="0.89" vaporized=""/>
    <tripinfo id="-E5__0__motorbike.6" depart="33.00" departLane="-E5_3" departPos="2.10" departPosLat="0.00" departSpeed="0.00" departDelay="1.06" arrival="67.00" arrivalLane="E6_2" arrivalPos="109.06" arrivalPosLat="0.00" arrivalSpeed="10.45" duration="34.00" routeLength="262.07" waitingTime="0.00" waitingCount="0" stopTime="0.00" timeLoss="9.11" rerouteNo="0" devices="tripinfo_-E5__0__motorbike.6" vType="motorbike" speedFactor="1.00" vaporized=""/>
    <tripinfo id="-E6__0__car.5" depart="40.00" departLane="-E6_1" departPos="4.60" departPosLat="0.00" departSpeed="0.00" departDelay="0.23" arrival="68.00" arrivalLane="E4_2" arrivalPos="100.65" arrivalPosLat="1.50" arrivalSpeed="10.43" duration="28.00" routeLength="232.31" waitingTime="0.00" waitingCount="0" stopTime="0.00" timeLoss="6.31" rerouteNo="0" devices="tripinfo_-E6__0__car.5" vType="car" speedFactor="1.06" vaporized=""/>
    <tripinfo id="-E1__0__motorbike.14" depart="41.00" departLane="-E1_1" departPos="2.10" departPosLat="0.00" departSpeed="0.00" departDelay="0.46" arrival="68.00" arrivalLane="E2_1" arrivalPos="100.88" arrivalPosLat="0.00" arrivalSpeed="10.17" duration="27.00" routeLength="214.82" waitingTime="0.00" waitingCount="0" stopTime="0.00" timeLoss="6.22" rerouteNo="0" devices="tripinfo_-E1__0__motorbike.14" vType="motorbike" speedFactor="0.97" vaporized=""/>
    <tripinfo id="-E6__0__car.3" depart="18.00" departLane="-E6_1" departPos="4.60" departPosLat="0.00" departSpeed="0.00" departDelay="0.91" arrival="70.00" arrivalLane="E1_2" arrivalPos="107.01" arrivalPosLat="0.00" arrivalSpeed="9.41" duration="52.00" routeLength="403.57" waitingTime="0.00" waitingCount="0" stopTime="0.00" timeLoss="7.60" rerouteNo="0" devices="tripinfo_-E6__0__car.3" vType="car" speedFactor="0.85" vaporized=""/>
    <tripinfo id="-E6__0__motorbike.4" depart="20.00" departLane="-E6_1" departPos="2.10" departPosLat="0.00" departSpeed="0.00" departDelay="0.89" arrival="70.00" arrivalLane="E1_2" arrivalPos="107.01" arrivalPosLat="1.45" arrivalSpeed="10.84" duration="50.00" routeLength="406.07" waitingTime="0.00" waitingCount="0" stopTime="0.00" timeLoss="12.26" rerouteNo="0" devices="tripinfo_-E6__0__motorbike.4" vType="motorbike" speedFactor="1.10" vaporized=""/>
    <tripinfo id="E0__0__car.5" depart="45.00" departLane="E0_1" departPos="4.60" departPosLat="0.00" departSpeed="0.00" departDelay="1.01" arrival="70.00" arrivalLane="E1_1" arrivalPos="107.01" arrivalPosLat="0.00" arrivalSpeed="10.81" duration="25.00" routeLength="188.24" waitingTime="0.00" waitingCount="0" stopTime="0.00" timeLoss="6.61" rerouteNo="0" devices="tripinfo_E0__0__car.5" vType="car" speedFactor="1.01" vaporized=""/>
    <tripinfo id="-E4__0__car.8" depart="38.00" departLane="-E4_3" departPos="4.60" departPosLat="0.00" departSpeed="0.00" departDelay="0.15" arrival="71.00" arrivalLane="E5_2" arrivalPos="146.08" arrivalPosLat="0.00" arrivalSpeed="9.71" duration="33.00" routeLength="251.16" waitingTime="0.00" waitingCount="0" stopTime="0.00" timeLoss="6.82" rerouteNo="0" devices="tripinfo_-E4__0__car.8" vType="car" speedFactor="0.91" vaporized=""/>
    <tripinfo id="-E5__0__motorbike.9" depart="40.00" departLane="-E5_1" departPos="2.10" departPosLat="0.00" departSpeed="0.00" departDelay="0.18" arrival="72.00" arrivalLane="E6_1" arrivalPos="109.06" arrivalPosLat="0.00" arrivalSpeed="10.59" duration="32.00" routeLength="262.07" waitingTime="0.00" waitingCount="0" stopTime="0.00" timeLoss="6.42" rerouteNo="0" devices="tripinfo_-E5__0__motorbike.9" vType="motorbike" speedFactor="0.96" vaporized=""/>