<?xml version="1.0" encoding="UTF-8"?>

<!-- generated on 2026-01-19 09:10:21 by Eclipse SUMO GUI Version 1.24.0
<sumoConfiguration xmlns:xsi="http://www.w3.org/2001/XMLSchema-instance" xsi:noNamespaceSchemaLocation="http://sumo.dlr.de/xsd/sumoConfiguration.xsd">

    <input>
        <net-file value="/home/hoanganh04/Projects/CoLight/Scenario/4nodes/env/4nodes.net.xml"/>
        <route-files value="/home/hoanganh04/Projects/CoLight/Scenario/4nodes/env/../routes/vehicle.rou.xml"/>
        <additional-files value="/home/hoanganh04/Projects/CoLight/Scenario/4nodes/env/../add/tls.add.xml,/home/hoanganh04/Projects/CoLight/Scenario/4nodes/env/ ../add/e2.add.xml"/>
    </input>

    <output>
        <netstate-dump value="/home/hoanganh04/Projects/CoLight/Scenario/4nodes/env/../output/e2.netstate.xml"/>
        <netstate-dump.precision value="2"/>
        <summary-output value="/home/hoanganh04/Projects/CoLight/Scenario/4nodes/env/../output/e2_summary.output.xml"/>
        <tripinfo-output value="/home/hoanganh04/Projects/CoLight/Scenario/4nodes/env/../output/e2.tripinfo.xml"/>
        <tripinfo-output.write-unfinished value="true"/>
    </output>

    <time>
        <begin value="0"/>
        <end value="60000"/>
        <step-length value="1.0"/>
    </time>

    <processing>
        <lateral-resolution value="0.2"/>
        <time-to-teleport value="-1"/>
        <waiting-time-memory value="10000"/>
        <max-depart-delay value="100000"/>
    </processing>

    <report>
        <no-warnings value="true"/>
        <no-step-log value="true"/>
    </report>

    <traci_server>
        <remote-port value="35839"/>
    </traci_server>

    <random_number>
        <random value="true"/>
    </random_number>

    <gui_only>
        <quit-on-end value="true"/>
        <start value="true"/>
    </gui_only>

</sumoConfiguration>
-->

<tripinfos xmlns:xsi="http://www.w3.org/2001/XMLSchema-instance" xsi:noNamespaceSchemaLocation="http://sumo.dlr.de/xsd/tripinfo_file.xsd">
    <tripinfo id="-E10__0__car.0" depart="1.00" departLane="-E10_3" departPos="4.60" departPosLat="0.00" departSpeed="0.00" departDelay="0.97" arrival="-1.00" arrivalLane="" arrivalPos="-1.00" arrivalPosLat="0.00" arrivalSpeed="-1.00" duration="17.00" routeLength="126.89" waitingTime="0.00" waitingCount="0" stopTime="0.00" timeLoss="3.99" rerouteNo="0" devices="tripinfo_-E10__0__car.0" vType="car" speedFactor="0.95" vaporized="end"/>
    <tripinfo id="-E5__0__motorbike.0" depart="1.00" departLane="-E5_2" departPos="2.10" departPosLat="0.00" departSpeed="0.00" departDelay="0.91" arrival="-1.00" arrivalLane="" arrivalPos="-1.00" arrivalPosLat="0.00" arrivalSpeed="-1.00" duration="17.00" routeLength="130.61" waitingTime="0.00" waitingCount="0" stopTime="0.00" timeLoss="4.24" rerouteNo="0" devices="tripinfo_-E5__0__motorbike.0" vType="motorbike" speedFactor="1.19" vaporized="end"/>
    <tripinfo id="-E5__0__motorbike.1" depart="1.00" departLane="-E5_3" departPos="2.10" departPosLat="0.00" departSpeed="0.00" departDelay="0.81" arrival="-1.00" arrivalLane="" arrivalPos="-1.00" arrivalPosLat="0.00" arrivalSpeed="-1.00" duration="17.00" routeLength="127.43" waitingTime="0.00" waitingCount="0" stopTime="0.00" timeLoss="4.33" rerouteNo="0" devices="tripinfo_-E5__0__motorbike.1" vType="motorbike" speedFactor="0.98" vaporized="end"/>
    <tripinfo id="-E11__0__motorbike.0" depart="1.00" departLane="-E11_3" departPos="2.10" departPosLat="0.00" departSpeed="0.00" departDelay="0.16" arrival="-1.00" arrivalLane="" arrivalPos="-1.00" arrivalPosLat="0.00" arrivalSpeed="-1.00" duration="17.00" routeLength="122.13" waitingTime="0.00" waitingCount="0" stopTime="0.00" timeLoss="3.87" rerouteNo="0" devices="tripinfo_-E11__0__motorbike.0" vType="motorbike" speedFactor="0.91" vaporized="end"/>
    <tripinfo id="-E9__0__motorbike.0" depart="2.00" departLane="-E9_1" departPos="2.10" departPosLat="0.00" departSpeed="0.00" departDelay="0.46" arrival="-1.00" arrivalLane="" arrivalPos="-1.00" arrivalPosLat="0.00" arrivalSpeed="-1.00" duration="16.00" routeLength="119.57" waitingTime="0.00" waitingCount="0" stopTime="0.00" timeLoss="4.24" rerouteNo="0" devices="tripinfo_-E9__0__motorbike.0" vType="motorbike" speedFactor="1.10" vaporized="end"/>
    <tripinfo id="-E8__0__motorbike.0" depart="2.00" departLane="-E8_2" departPos="2.10" departPosLat="0.00" departSpeed="0.00" departDelay="0.28" arrival="-1.00" arrivalLane="" arrivalPos="-1.00" arrivalPosLat="0.00" arrivalSpeed="-1.00" duration="16.00" routeLength="119.52" waitingTime="0.00" waitingCount="0" stopTime="0.00" timeLoss="4.24" rerouteNo="0" devices="tripinfo_-E8__0__motorbike.0" vType="motorbike" speedFactor="1.05" vaporized="end"/>
    <tripinfo id="-E9__0__car.0" depart="4.00" departLane="-E9_2" departPos="4.60" departPosLat="0.00" departSpeed="0.00" departDelay="0.57" arrival="-1.00" arrivalLane="" arrivalPos="-1.00" arrivalPosLat="0.00" arrivalSpeed="-1.00" duration="14.00" routeLength="94.63" waitingTime="0.00" waitingCount="0" stopTime="0.00" timeLoss="4.16" rerouteNo="0" devices="tripinfo_-E9__0__car.0" vType="car" speedFactor="0.96" vaporized="end"/>
    <tripinfo id="-E8__0__motorbike.1" depart="4.00" departLane="-E8_1" departPos="2.10" departPosLat="0.00" departSpeed="0.00" departDelay="0.53" arrival="-1.00" arrivalLane="" arrivalPos="-1.00" arrivalPosLat="0.00" arrivalSpeed="-1.00" duration="14.00" routeLength="96.34" waitingTime="0.00" waitingCount="0" stopTime="0.00" timeLoss="4.33" rerouteNo="0" devices="tripinfo_-E8__0__motorbike.1" vType="motorbike" speedFactor="1.16" vaporized="end"/>
    <tripinfo id="E0__0__motorbike.0" depart="4.00" departLane="E0_2" departPos="2.10" departPosLat="0.00" departSpeed="0.00" departDelay="0.42" arrival="-1.00" arrivalLane="" arrivalPos="-1.00" arrivalPosLat="0.00" arrivalSpeed="-1.00" duration="14.00" routeLength="92.56" waitingTime="0.00" waitingCount="0" stopTime="0.00" timeLoss="3.77" rerouteNo="0" devices="tripinfo_E0__0__motorbike.0" vType="motorbike" speedFactor="0.90" vaporized="end"/>
    <tripinfo id="-E11__0__motorbike.1" depart="5.00" departLane="-E11_2" departPos="2.10" departPosLat="0.00" departSpeed="0.00" departDelay="0.84" arrival="-1.00" arrivalLane="" arrivalPos="-1.00" arrivalPosLat="0.00" arrivalSpeed="-1.00" duration="13.00" routeLength="87.83" waitingTime="0.00" waitingCount="0" stopTime="0.00" timeLoss="4.09" rerouteNo="0" devices="tripinfo_-E11__0__motorbike.1" vType="motorbike" speedFactor="1.24" vaporized="end"/>
    <tripinfo id="-E10__0__motorbike.0" depart="5.00" departLane="-E10_3" departPos="2.10" departPosLat="0.00" departSpeed="0.00" departDelay="0.46" arrival="-1.00" arrivalLane="" arrivalPos="-1.00" arrivalPosLat="0.00" arrivalSpeed="-1.00" duration="13.00" routeLength="78.14" waitingTime="0.00" waitingCount="0" stopTime="0.00" timeLoss="4.64" rerouteNo="0" devices="tripinfo_-E10__0__motorbike.0" vType="motorbike" speedFactor="0.96" vaporized="end"/>
    <tripinfo id="-E5__0__car.0" depart="5.00" departLane="-E5_2" departPos="4.60" departPosLat="0.00" departSpeed="0.00" departDelay="0.16" arrival="-1.00" arrivalLane="" arrivalPos="-1.00" arrivalPosLat="0.00" arrivalSpeed="-1.00" duration="13.00" routeLength="82.80" waitingTime="0.00" waitingCount="0" stopTime="0.00" timeLoss="4.55" rerouteNo="0" devices="tripinfo_-E5__0__car.0" vType="car" speedFactor="1.11" vaporized="end"/>
    <tripinfo id="-E1__0__car.0" depart="6.00" departLane="-E1_3" departPos="4.60" departPosLat="0.00" departSpeed="0.00" departDelay="0.32" arrival="-1.00" arrivalLane="" arrivalPos="-1.00" arrivalPosLat="0.00" arrivalSpeed="-1.00" duration="12.00" routeLength="75.57" waitingTime="0.00" waitingCount="0" stopTime="0.00" timeLoss="4.20" rerouteNo="0" devices="tripinfo_-E1__0__car.0" vType="car" speedFactor="1.00" vaporized="end"/>
    <tripinfo id="-E11__0__car.0" depart="6.00" departLane="-E11_3" departPos="4.60" departPosLat="0.00" departSpeed="0.00" departDelay="0.01" arrival="-1.00" arrivalLane="" arrivalPos="-1.00" arrivalPosLat="0.00" arrivalSpeed="-1.00" duration="12.00" routeLength="70.65" waitingTime="0.00" waitingCount="0" stopTime="0.00" timeLoss="4.64" rerouteNo="0" devices="tripinfo_-E11__0__car.0" vType="car" speedFactor="1.04" vaporized="end"/>
    <tripinfo id="-E1__0__motorbike.0" depart="8.00" departLane="-E1_1" departPos="2.10" departPosLat="0.00" departSpeed="0.00" departDelay="1.46" arrival="-1.00" arrivalLane="" arrivalPos="-1.00" arrivalPosLat="0.00" arrivalSpeed="-1.00" duration="10.00" routeLength="53.54" waitingTime="0.00" waitingCount="0" stopTime="0.00" timeLoss="3.97" rerouteNo="0" devices="tripinfo_-E1__0__motorbike.0" vType="motorbike" speedFactor="0.96" vaporized="end"/>
    <tripinfo id="-E1__0__motorbike.1" depart="11.00" departLane="-E1_1" departPos="2.10" departPosLat="0.00" departSpeed="0.00" departDelay="4.20" arrival="-1.00" arrivalLane="" arrivalPos="-1.00" arrivalPosLat="0.00" arrivalSpeed="-1.00" duration="7.00" routeLength="26.02" waitingTime="0.00" waitingCount="0" stopTime="0.00" timeLoss="3.62" rerouteNo="0" devices="tripinfo_-E1__0__motorbike.1" vType="motorbike" speedFactor="0.98" vaporized="end"/>
    <tripinfo id="-E1__0__car.1" depart="9.00" departLane="-E1_3" departPos="4.60" departPosLat="0.00" departSpeed="0.00" departDelay="1.29" arrival="-1.00" arrivalLane="" arrivalPos="-1.00" arrivalPosLat="0.00" arrivalSpeed="-1.00" duration="9.00" routeLength="43.70" waitingTime="0.00" waitingCount="0" stopTime="0.00" timeLoss="3.07" rerouteNo="0" devices="tripinfo_-E1__0__car.1" vType="car" speedFactor="0.80" vaporized="end"/>
    <tripinfo id="-E11__0__car.1" depart="8.00" departLane="-E11_2" departPos="4.60" departPosLat="0.00" departSpeed="0.00" departDelay="0.05" arrival="-1.00" arrivalLane="" arrivalPos="-1.00" arrivalPosLat="0.00" arrivalSpeed="-1.00" duration="10.00" routeLength="47.81" waitingTime="0.00" waitingCount="0" stopTime="0.00" timeLoss="4.10" rerouteNo="0" devices="tripinfo_-E11__0__car.1" vType="car" speedFactor="0.88" vaporized="end"/>
    <tripinfo id="-E10__0__car.1" depart="10.00" departLane="-E10_2" departPos="4.60" departPosLat="0.00" departSpeed="0.00" departDelay="0.69" arrival="-1.00" arrivalLane="" arrivalPos="-1.00" arrivalPosLat="0.00" arrivalSpeed="-1.00" duration="8.00" routeLength="32.56" waitingTime="0.00" waitingCount="0" stopTime="0.00" timeLoss="3.71" rerouteNo="0" devices="tripinfo_-E10__0__car.1" vType="car" speedFactor="0.89" vaporized="end"/>
    <tripinfo id="-E8__0__motorbike.2" depart="11.00" departLane="-E8_1" departPos="2.10" departPosLat="0.00" departSpeed="0.00" departDelay="0.83" arrival="-1.00" arrivalLane="" arrivalPos="-1.00" arrivalPosLat="0.00" arrivalSpeed="-1.00" duration="7.00" routeLength="21.74" waitingTime="0.00" waitingCount="0" stopTime="0.00" timeLoss="4.04" rerouteNo="0" devices="tripinfo_-E8__0__motorbike.2" vType="motorbike" speedFactor="1.06" vaporized="end"/>
    <tripinfo id="-E1__0__motorbike.2" depart="12.00" departLane="-E1_3" departPos="2.10" departPosLat="0.00" departSpeed="0.00" departDelay="1.18" arrival="-1.00" arrivalLane="" arrivalPos="-1.00" arrivalPosLat="0.00" arrivalSpeed="-1.00" duration="6.00" routeLength="13.91" waitingTime="0.00" waitingCount="0" stopTime="0.00" timeLoss="3.71" rerouteNo="0" devices="tripinfo_-E1__0__motorbike.2" vType="motorbike" speedFactor="0.97" vaporized="end"/>
    <tripinfo id="E0__0__motorbike.1" depart="11.00" departLane="E0_2" departPos="2.10" departPosLat="0.00" departSpeed="0.00" departDelay="0.12" arrival="-1.00" arrivalLane="" arrivalPos="-1.00" arrivalPosLat="0.00" arrivalSpeed="-1.00" duration="7.00" routeLength="26.24" waitingTime="0.00" waitingCount="0" stopTime="0.00" timeLoss="3.64" rerouteNo="0" devices="tripinfo_E0__0__motorbike.1" vType="motorbike" speedFactor="1.12" vaporized="end"/>
    <tripinfo id="E0__0__car.0" depart="12.00" departLane="E0_3" departPos="4.60" departPosLat="0.00" departSpeed="0.00" departDelay="0.97" arrival="-1.00" arrivalLane="" arrivalPos="-1.00" arrivalPosLat="0.00" arrivalSpeed="-1.00" duration="6.00" routeLength="15.60" waitingTime="0.00" waitingCount="0" stopTime="0.00" timeLoss="3.51" rerouteNo="0" devices="tripinfo_E0__0__car.0" vType="car" speedFactor="0.94" vaporized="end"/>
    <tripinfo id="-E9__0__motorbike.1" depart="12.00" departLane="-E9_1" departPos="2.10" departPosLat="0.00" departSpeed="0.00" departDelay="0.74" arrival="-1.00" arrivalLane="" arrivalPos="-1.00" arrivalPosLat="0.00" arrivalSpeed="-1.00" duration="6.00" routeLength="16.57" waitingTime="0.00" waitingCount="0" stopTime="0.00" timeLoss="3.51" rerouteNo="0" devices="tripinfo_-E9__0__motorbike.1" vType="motorbike" speedFactor="1.04" vaporized="end"/>
    <tripinfo id="-E8__0__motorbike.3" depart="13.00" departLane="-E8_3" departPos="2.10" departPosLat="0.00" departSpeed="0.00" departDelay="0.71" arrival="-1.00" arrivalLane="" arrivalPos="-1.00" arrivalPosLat="0.00" arrivalSpeed="-1.00" duration="5.00" routeLength="12.69" waitingTime="0.00" waitingCount="0" stopTime="0.00" timeLoss="2.80" rerouteNo="0" devices="tripinfo_-E8__0__motorbike.3" vType="motorbike" speedFactor="0.95" vaporized="end"/>
    <tripinfo id="-E1__0__motorbike.3" depart="13.00" departLane="-E1_2" departPos="2.10" departPosLat="0.00" departSpeed="0.00" departDelay="0.68" arrival="-1.00" arrivalLane="" arrivalPos="-1.00" arrivalPosLat="0.00" arrivalSpeed="-1.00" duration="5.00" routeLength="12.18" waitingTime="0.00" waitingCount="0" stopTime="0.00" timeLoss="2.88" rerouteNo="0" devices="tripinfo_-E1__0__motorbike.3" vType="motorbike" speedFactor="0.98" vaporized="end"/>
    <tripinfo id="-E8__0__motorbike.4" depart="14.00" departLane="-E8_1" departPos="2.10" departPosLat="0.00" departSpeed="0.00" departDelay="1.59" arrival="-1.00" arrivalLane="" arrivalPos="-1.00" arrivalPosLat="0.00" arrivalSpeed="-1.00" duration="4.00" routeLength="8.04" waitingTime="0.00" waitingCount="0" stopTime="0.00" timeLoss="2.18" rerouteNo="0" devices="tripinfo_-E8__0__motorbike.4" vType="motorbike" speedFactor="0.88" vaporized="end"/>
    <tripinfo id="-E9__0__car.1" depart="14.00" departLane="-E9_3" departPos="4.60" departPosLat="0.00" departSpeed="0.00" departDelay="0.33" arrival="-1.00" arrivalLane="" arrivalPos="-1.00" arrivalPosLat="0.00" arrivalSpeed="-1.00" duration="4.00" routeLength="7.84" waitingTime="0.00" waitingCount="0" stopTime="0.00" timeLoss="2.29" rerouteNo="0" devices="tripinfo_-E9__0__car.1" vType="car" speedFactor="1.11" vaporized="end"/>
    <tripinfo id="-E8__0__car.0" depart="16.00" departLane="-E8_3" departPos="4.60" departPosLat="0.00" departSpeed="0.00" departDelay="1.99" arrival="-1.00" arrivalLane="" arrivalPos="-1.00" arrivalPosLat="0.00" arrivalSpeed="-1.00" duration="2.00" routeLength="1.49" waitingTime="0.00" waitingCount="0" stopTime="0.00" timeLoss="0.87" rerouteNo="0" devices="tripinfo_-E8__0__car.0" vType="car" speedFactor="1.08" vaporized="end"/>
    <tripinfo id="-E4__0__motorbike.0" depart="15.00" departLane="-E4_1" departPos="2.10" departPosLat="0.00" departSpeed="0.00" departDelay="0.64" arrival="-1.00" arrivalLane="" arrivalPos="-1.00" arrivalPosLat="0.00" arrivalSpeed="-1.00" duration="3.00" routeLength="4.15" waitingTime="0.00" waitingCount="0" stopTime="0.00" timeLoss="1.63" rerouteNo="0" devices="tripinfo_-E4__0__motorbike.0" vType="motorbike" speedFactor="1.02" vaporized="end"/>
    <tripinfo id="-E9__0__motorbike.2" depart="16.00" departLane="-E9_2" departPos="2.10" departPosLat="0.00" departSpeed="0.00" departDelay="0.92" arrival="-1.00" arrivalLane="" arrivalPos="-1.00" arrivalPosLat="0.00" arrivalSpeed="-1.00" duration="2.00" routeLength="1.10" waitingTime="0.00" waitingCount="0" stopTime="0.00" timeLoss="0.89" rerouteNo="0" devices="tripinfo_-E9__0__motorbike.2" vType="motorbike" speedFactor="0.93" vaporized="end"/>
    <tripinfo id="-E9__0__motorbike.3" depart="16.00" departLane="-E9_1" departPos="2.10" departPosLat="0.00" departSpeed="0.00" departDelay="0.41" arrival="-1.00" arrivalLane="" arrivalPos="-1.00" arrivalPosLat="0.00" arrivalSpeed="-1.00" duration="2.00" routeLength="0.77" waitingTime="0.00" waitingCount="0" stopTime="0.00" timeLoss="0.93" rerouteNo="0" devices="tripinfo_-E9__0__motorbike.3" vType="motorbike" speedFactor="1.11" vaporized="end"/>
    <tripinfo id="-E11__0__motorbike.2" depart="16.00" departLane="-E11_1" departPos="2.10" departPosLat="0.00" departSpeed="0.00" departDelay="0.32" arrival="-1.00" arrivalLane="" arrivalPos="-1.00" arrivalPosLat="0.00" arrivalSpeed="-1.00" duration="2.00" routeLength="1.38" waitingTime="0.00" waitingCount="0" stopTime="0.00" timeLoss="0.87" rerouteNo="0" devices="tripinfo_-E11__0__motorbike.2" vType="motorbike" speedFactor="0.94" vaporized="end"/>
    <tripinfo id="E0__0__motorbike.2" depart="16.00" departLane="E0_2" departPos="2.10" departPosLat="0.00" departSpeed="0.00" departDelay="0.07" arrival="-1.00" arrivalLane="" arrivalPos="-1.00" arrivalPosLat="0.00" arrivalSpeed="-1.00" duration="2.00" routeLength="0.78" waitingTime="0.00" waitingCount="0" stopTime="0.00" timeLoss="0.93" rerouteNo="0" devices="tripinfo_E0__0__motorbike.2" vType="motorbike" speedFactor="0.94" vaporized="end"/>
    <tripinfo id="-E4__0__motorbike.1" depart="17.00" departLane="-E4_2" departPos="2.10" departPosLat="0.00" departSpeed="0.00" departDelay="0.74" arrival="-1.00" arrivalLane="" arrivalPos="-1.00" arrivalPosLat="0.00" arrivalSpeed="-1.00" duration="1.00" routeLength="0.00" waitingTime="0.00" waitingCount="0" stopTime="0.00" timeLoss="0.00" rerouteNo="0" devices="tripinfo_-E4__0__motorbike.1" vType="motorbike" speedFactor="0.85" vaporized="end"/>
    <tripinfo id="-E8__0__motorbike.5" depart="17.00" departLane="-E8_1" departPos="2.10" departPosLat="0.00" departSpeed="0.00" departDelay="0.27" arrival="-1.00" arrivalLane="" arrivalPos="-1.00" arrivalPosLat="0.00" arrivalSpeed="-1.00" duration="1.00" routeLength="0.00" waitingTime="0.00" waitingCount="0" stopTime="0.00" timeLoss="0.00" rerouteNo="0" devices="tripinfo_-E8__0__motorbike.5" vType="motorbike" speedFactor="0.91" vaporized="end"/>
    <tripinfo id="-E11__0__motorbike.3" depart="17.00" departLane="-E11_2" departPos="2.10" departPosLat="0.00" departSpeed="0.00" departDelay="0.25" arrival="-1.00" arrivalLane="" arrivalPos="-1.00" arrivalPosLat="0.00" arrivalSpeed="-1.00" duration="1.00" routeLength="0.00" waitingTime="0.00" waitingCount="0" stopTime="0.00" timeLoss="0.00" rerouteNo="0" devices="tripinfo_-E11__0__motorbike.3" vType="motorbike" speedFactor="0.99" vaporized="end"/>
</tripinfos>
0__motorbike.3" depart="17.00" departLane="-E11_2" departPos="2.10" departPosLat="0.00" departSpeed="0.00" departDelay="0.25" arrival="-1.00" arrivalLane="" arrivalPos="-1.00" arrivalPosLat="0.00" arrivalSpeed="-1.00" duration="3.00" routeLength="3.41" waitingTime="0.00" waitingCount="0" stopTime="0.00" timeLoss="1.69" rerouteNo="0" devices="tripinfo_-E11__0__motorbike.3" vType="motorbike" speedFactor="0.99" vaporized="end"/>
    <tripinfo id="E0__0__motorbike.3" depart="18.00" departLane="E0_2" departPos="2.10" departPosLat="0.00" departSpeed="0.00" departDelay="0.63" arrival="-1.00" arrivalLane="" arrivalPos="-1.00" arrivalPosLat="0.00" arrivalSpeed="-1.00" duration="2.00" routeLength="1.49" waitingTime="0.00" waitingCount="0" stopTime="0.00" timeLoss="0.87" rerouteNo="0" devices="tripinfo_E0__0__motorbike.3" vType="motorbike" speedFactor="1.04" vaporized="end"/>
    <tripinfo id="-E9__0__motorbike.4" depart="19.00" departLane="-E9_1" departPos="2.10" departPosLat="0.00" departSpeed="0.00" departDelay="0.16" arrival="-1.00" arrivalLane="" arrivalPos="-1.00" arrivalPosLat="0.00" arrivalSpeed="-1.00" duration="1.00" routeLength="0.00" waitingTime="0.00" waitingCount="0" stopTime="0.00" timeLoss="0.00" rerouteNo="0" devices="tripinfo_-E9__0__motorbike.4" vType="motorbike" speedFactor="0.93" vaporized="end"/>
</tripinfos>
.3" vType="motorbike" speedFactor="0.99" vaporized="end"/>
    <tripinfo id="E0__0__motorbike.3" depart="18.00" departLane="E0_1" departPos="2.10" departPosLat="0.00" departSpeed="0.00" departDelay="0.63" arrival="-1.00" arrivalLane="" arrivalPos="-1.00" arrivalPosLat="0.00" arrivalSpeed="-1.00" duration="50.00" routeLength="467.96" waitingTime="0.00" waitingCount="0" stopTime="0.00" timeLoss="6.63" rerouteNo="0" devices="tripinfo_E0__0__motorbike.3" vType="motorbike" speedFactor="0.99" vaporized=""/>
    <tripinfo id="-E9__0__motorbike.4" depart="19.00" departLane="-E9_3" departPos="2.10" departPosLat="0.00" departSpeed="0.00" departDelay="0.16" arrival="-1.00" arrivalLane="" arrivalPos="-1.00" arrivalPosLat="0.00" arrivalSpeed="-1.00" duration="49.00" routeLength="212.08" waitingTime="19.00" waitingCount="1" stopTime="0.00" timeLoss="25.20" rerouteNo="0" devices="tripinfo_-E9__0__motorbike.4" vType="motorbike" speedFactor="0.84" vaporized="end"/>
    <tripinfo id="-E1__0__motorbike.4" depart="20.00" departLane="-E1_1" departPos="2.10" departPosLat="0.00" departSpeed="0.00" departDelay="0.72" arrival="-1.00" arrivalLane="" arrivalPos="-1.00" arrivalPosLat="0.00" arrivalSpeed="-1.00" duration="48.00" routeLength="398.05" waitingTime="0.00" waitingCount="0" stopTime="0.00" timeLoss="9.06" rerouteNo="0" devices="tripinfo_-E1__0__motorbike.4" vType="motorbike" speedFactor="0.98" vaporized=""/>
    <tripinfo id="-E1__0__motorbike.5" depart="22.00" departLane="-E1_1" departPos="2.10" departPosLat="0.00" departSpeed="0.00" departDelay="1.68" arrival="-1.00" arrivalLane="" arrivalPos="-1.00" arrivalPosLat="0.00" arrivalSpeed="-1.00" duration="46.00" routeLength="161.21" waitingTime="23.00" waitingCount="1" stopTime="0.00" timeLoss="30.49" rerouteNo="0" devices="tripinfo_-E1__0__motorbike.5" vType="motorbike" speedFactor="1.03" vaporized="end"/>
    <tripinfo id="-E8__0__motorbike.6" depart="21.00" departLane="-E8_1" departPos="2.10" departPosLat="0.00" departSpeed="0.00" departDelay="0.50" arrival="-1.00" arrivalLane="" arrivalPos="-1.00" arrivalPosLat="0.00" arrivalSpeed="-1.00" duration="47.00" routeLength="436.59" waitingTime="0.00" waitingCount="0" stopTime="0.00" timeLoss="6.70" rerouteNo="0" devices="tripinfo_-E8__0__motorbike.6" vType="motorbike" speedFactor="1.03" vaporized="end"/>
    <tripinfo id="-E8__0__car.1" depart="24.00" departLane="-E8_2" departPos="4.60" departPosLat="0.00" departSpeed="0.00" departDelay="0.84" arrival="-1.00" arrivalLane="" arrivalPos="-1.00" arrivalPosLat="0.00" arrivalSpeed="-1.00" duration="44.00" routeLength="372.24" waitingTime="0.00" waitingCount="0" stopTime="0.00" timeLoss="5.64" rerouteNo="0" devices="tripinfo_-E8__0__car.1" vType="car" speedFactor="0.90" vaporized="end"/>
    <tripinfo id="-E11__0__motorbike.4" depart="24.00" departLane="-E11_2" departPos="2.10" departPosLat="0.00" departSpeed="0.00" departDelay="0.65" arrival="-1.00" arrivalLane="" arrivalPos="-1.00" arrivalPosLat="0.00" arrivalSpeed="-1.00" duration="44.00" routeLength="395.00" waitingTime="0.00" waitingCount="0" stopTime="0.00" timeLoss="6.69" rerouteNo="0" devices="tripinfo_-E11__0__motorbike.4" vType="motorbike" speedFactor="1.03" vaporized=""/>
    <tripinfo id="-E4__0__motorbike.2" depart="25.00" departLane="-E4_2" departPos="2.10" departPosLat="0.00" departSpeed="0.00" departDelay="0.31" arrival="-1.00" arrivalLane="" arrivalPos="-1.00" arrivalPosLat="0.00" arrivalSpeed="-1.00" duration="43.00" routeLength="377.00" waitingTime="0.00" waitingCount="0" stopTime="0.00" timeLoss="7.35" rerouteNo="0" devices="tripinfo_-E4__0__motorbike.2" vType="motorbike" speedFactor="1.05" vaporized="end"/>
    <tripinfo id="-E10__0__motorbike.1" depart="26.00" departLane="-E10_1" departPos="2.10" departPosLat="0.00" departSpeed="0.00" departDelay="0.78" arrival="-1.00" arrivalLane="" arrivalPos="-1.00" arrivalPosLat="0.00" arrivalSpeed="-1.00" duration="42.00" routeLength="376.05" waitingTime="0.00" waitingCount="0" stopTime="0.00" timeLoss="6.59" rerouteNo="0" devices="tripinfo_-E10__0__motorbike.1" vType="motorbike" speedFactor="1.12" vaporized="end"/>
    <tripinfo id="-E5__0__motorbike.2" depart="28.00" departLane="-E5_2" departPos="2.10" departPosLat="0.00" departSpeed="0.00" departDelay="2.14" arrival="-1.00" arrivalLane="" arrivalPos="-1.00" arrivalPosLat="0.00" arrivalSpeed="-1.00" duration="40.00" routeLength="361.44" waitingTime="0.00" waitingCount="0" stopTime="0.00" timeLoss="6.47" rerouteNo="0" devices="tripinfo_-E5__0__motorbike.2" vType="motorbike" speedFactor="1.00" vaporized="end"/>
    <tripinfo id="E0__0__car.1" depart="26.00" departLane="E0_2" departPos="4.60" departPosLat="0.00" departSpeed="0.00" departDelay="0.10" arrival="-1.00" arrivalLane="" arrivalPos="-1.00" arrivalPosLat="0.00" arrivalSpeed="-1.00" duration="42.00" routeLength="357.09" waitingTime="0.00" waitingCount="0" stopTime="0.00" timeLoss="8.24" rerouteNo="0" devices="tripinfo_E0__0__car.1" vType="car" speedFactor="1.06" vaporized=""/>
    <tripinfo id="-E10__0__motorbike.2" depart="27.00" departLane="-E10_3" departPos="2.10" departPosLat="0.00" departSpeed="0.00" departDelay="0.77" arrival="-1.00" arrivalLane="" arrivalPos="-1.00" arrivalPosLat="0.00" arrivalSpeed="-1.00" duration="41.00" routeLength="205.64" waitingTime="13.00" waitingCount="1" stopTime="0.00" timeLoss="19.88" rerouteNo="0" devices="tripinfo_-E10__0__motorbike.2" vType="motorbike" speedFactor="0.92" vaporized="end"/>
    <tripinfo id="-E10__0__motorbike.3" depart="27.00" departLane="-E10_2" departPos="2.10" departPosLat="0.00" departSpeed="0.00" departDelay="0.60" arrival="-1.00" arrivalLane="" arrivalPos="-1.00" arrivalPosLat="0.00" arrivalSpeed="-1.00" duration="41.00" routeLength="205.64" waitingTime="15.00" waitingCount="1" stopTime="0.00" timeLoss="21.49" rerouteNo="0" devices="tripinfo_-E10__0__motorbike.3" vType="motorbike" speedFactor="1.06" vaporized="end"/>
    <tripinfo id="E0__0__motorbike.4" depart="27.00" departLane="E0_3" departPos="2.10" departPosLat="0.00" departSpeed="0.00" departDelay="0.30" arrival="-1.00" arrivalLane="" arrivalPos="-1.00" arrivalPosLat="0.00" arrivalSpeed="-1.00" duration="41.00" routeLength="375.26" waitingTime="0.00" waitingCount="0" stopTime="0.00" timeLoss="6.13" rerouteNo="0" devices="tripinfo_E0__0__motorbike.4" vType="motorbike" speedFactor="1.04" vaporized="end"/>
    <tripinfo id="-E1__0__motorbike.6" depart="27.00" departLane="-E1_2" departPos="2.10" departPosLat="0.00" departSpeed="0.00" departDelay="0.05" arrival="-1.00" arrivalLane="" arrivalPos="-1.00" arrivalPosLat="0.00" arrivalSpeed="-1.00" duration="41.00" routeLength="347.65" waitingTime="0.00" waitingCount="0" stopTime="0.00" timeLoss="7.23" rerouteNo="0" devices="tripinfo_-E1__0__motorbike.6" vType="motorbike" speedFactor="1.03" vaporized=""/>
    <tripinfo id="-E8__0__motorbike.7" depart="28.00" departLane="-E8_2" departPos="2.10" departPosLat="0.00" departSpeed="0.00" departDelay="0.65" arrival="-1.00" arrivalLane="" arrivalPos="-1.00" arrivalPosLat="0.00" arrivalSpeed="-1.00" duration="40.00" routeLength="318.90" waitingTime="0.00" waitingCount="0" stopTime="0.00" timeLoss="4.77" rerouteNo="0" devices="tripinfo_-E8__0__motorbike.7" vType="motorbike" speedFactor="0.84" vaporized="end"/>
    <tripinfo id="-E11__0__car.2" depart="29.00" departLane="-E11_1" departPos="4.60" departPosLat="0.00" departSpeed="0.00" departDelay="0.71" arrival="-1.00" arrivalLane="" arrivalPos="-1.00" arrivalPosLat="0.00" arrivalSpeed="-1.00" duration="39.00" routeLength="260.55" waitingTime="7.00" waitingCount="1" stopTime="0.00" timeLoss="14.55" rerouteNo="0" devices="tripinfo_-E11__0__car.2" vType="car" speedFactor="1.09" vaporized="end"/>
    <tripinfo id="-E9__0__motorbike.5" depart="30.00" departLane="-E9_3" departPos="2.10" departPosLat="0.00" departSpeed="0.00" departDelay="0.17" arrival="-1.00" arrivalLane="" arrivalPos="-1.00" arrivalPosLat="0.00" arrivalSpeed="-1.00" duration="38.00" routeLength="199.29" waitingTime="10.00" waitingCount="1" stopTime="0.00" timeLoss="19.06" rerouteNo="0" devices="tripinfo_-E9__0__motorbike.5" vType="motorbike" speedFactor="1.10" vaporized="end"/>
    <tripinfo id="-E4__0__motorbike.3" depart="31.00" departLane="-E4_1" departPos="2.10" departPosLat="0.00" departSpeed="0.00" departDelay="0.49" arrival="-1.00" arrivalLane="" arrivalPos="-1.00" arrivalPosLat="0.00" arrivalSpeed="-1.00" duration="37.00" routeLength="321.06" waitingTime="0.00" waitingCount="0" stopTime="0.00" timeLoss="6.40" rerouteNo="0" devices="tripinfo_-E4__0__motorbike.3" vType="motorbike" speedFactor="1.04" vaporized="end"/>
    <tripinfo id="-E10__0__motorbike.4" depart="31.00" departLane="-E10_1" departPos="2.10" departPosLat="0.00" departSpeed="0.00" departDelay="0.11" arrival="-1.00" arrivalLane="" arrivalPos="-1.00" arrivalPosLat="0.00" arrivalSpeed="-1.00" duration="37.00" routeLength="307.99" waitingTime="0.00" waitingCount="0" stopTime="0.00" timeLoss="7.83" rerouteNo="0" devices="tripinfo_-E10__0__motorbike.4" vType="motorbike" speedFactor="1.09" vaporized="end"/>
    <tripinfo id="-E10__0__motorbike.5" depart="32.00" departLane="-E10_3" departPos="2.10" departPosLat="0.00" departSpeed="0.00" departDelay="0.92" arrival="-1.00" arrivalLane="" arrivalPos="-1.00" arrivalPosLat="0.00" arrivalSpeed="-1.00" duration="36.00" routeLength="203.14" waitingTime="9.00" waitingCount="1" stopTime="0.00" timeLoss="16.72" rerouteNo="0" devices="tripinfo_-E10__0__motorbike.5" vType="motorbike" speedFactor="1.12" vaporized="end"/>
    <tripinfo id="-E5__0__motorbike.3" depart="32.00" departLane="-E5_2" departPos="2.10" departPosLat="0.00" departSpeed="0.00" departDelay="0.15" arrival="-1.00" arrivalLane="" arrivalPos="-1.00" arrivalPosLat="0.00" arrivalSpeed="-1.00" duration="36.00" routeLength="325.15" waitingTime="0.00" waitingCount="0" stopTime="0.00" timeLoss="5.52" rerouteNo="0" devices="tripinfo_-E5__0__motorbike.3" vType="motorbike" speedFactor="1.00" vaporized="end"/>