<?xml version="1.0" encoding="UTF-8"?>

<!-- generated on 2025-11-27T09:49:02.847991+07:00 by Eclipse SUMO libsumo 1.25.0
<libsumoConfiguration xmlns:xsi="http://www.w3.org/2001/XMLSchema-instance" xsi:noNamespaceSchemaLocation="http://sumo.dlr.de/xsd/libsumoConfiguration.xsd">

    <input>
        <net-file value="/home/hoanganh04/Projects/LLM-Assisted-Light/TSCScenario/map/env/map.net.xml"/>
        <route-files value="/home/hoanganh04/Projects/LLM-Assisted-Light/TSCScenario/map/env/../routes/binh_thuong/vehicle.rou.xml"/>
        <additional-files value="/home/hoanganh04/Projects/LLM-Assisted-Light/TSCScenario/map/env/map.poly.xml,/home/hoanganh04/Projects/LLM-Assisted-Light/TSCScenario/map/env/ ../add/e2.add.xml"/>
    </input>

    <output>
        <netstate-dump value="/home/hoanganh04/Projects/LLM-Assisted-Light/TSCScenario/map/env/../output/e2.netstate.xml"/>
        <netstate-dump.precision value="2"/>
        <summary-output value="/home/hoanganh04/Projects/LLM-Assisted-Light/TSCScenario/map/env/../output/e2_summary.output.xml"/>
        <tripinfo-output value="/home/hoanganh04/Projects/LLM-Assisted-Light/TSCScenario/map/env/../output/e2.tripinfo.xml"/>
        <tripinfo-output.write-unfinished value="true"/>
    </output>

    <time>
        <begin value="0"/>
        <end value="500"/>
        <step-length value="1.0"/>
    </time>

    <processing>
        <lateral-resolution value="0.2"/>
        <time-to-teleport value="-1"/>
        <waiting-time-memory value="10000"/>
        <max-depart-delay value="100000"/>
    </processing>

    <report>
        <no-warnings value="true"/>
        <no-step-log value="true"/>
    </report>

    <random_number>
        <random value="true"/>
    </random_number>

    <gui_only>
        <gui-settings-file value="/home/hoanganh04/Projects/LLM-Assisted-Light/TSCScenario/map/env/view.xml"/>
    </gui_only>

</libsumoConfiguration>
-->

<tripinfos xmlns:xsi="http://www.w3.org/2001/XMLSchema-instance" xsi:noNamespaceSchemaLocation="http://sumo.dlr.de/xsd/tripinfo_file.xsd">
    <tripinfo id="-E2__0__motorbike.0" depart="4.00" departLane="-E2_0" departPos="2.10" departPosLat="0.00" departSpeed="0.00" departDelay="0.42" arrival="39.00" arrivalLane="E1_1" arrivalPos="165.93" arrivalPosLat="0.00" arrivalSpeed="10.25" duration="35.00" routeLength="313.23" waitingTime="0.00" waitingCount="0" stopTime="0.00" timeLoss="4.77" rerouteNo="0" devices="tripinfo_-E2__0__motorbike.0" vType="motorbike" speedFactor="0.94" vaporized=""/>
    <tripinfo id="-E2__0__motorbike.1" depart="7.00" departLane="-E2_0" departPos="2.10" departPosLat="0.00" departSpeed="0.00" departDelay="0.46" arrival="41.00" arrivalLane="E1_1" arrivalPos="165.93" arrivalPosLat="0.00" arrivalSpeed="10.53" duration="34.00" routeLength="313.23" waitingTime="0.00" waitingCount="0" stopTime="0.00" timeLoss="4.97" rerouteNo="0" devices="tripinfo_-E2__0__motorbike.1" vType="motorbike" speedFactor="1.05" vaporized=""/>
    <tripinfo id="E4__0__car.0" depart="1.00" departLane="E4_0" departPos="4.60" departPosLat="0.00" departSpeed="0.00" departDelay="0.97" arrival="51.00" arrivalLane="-E6_0" arrivalPos="183.41" arrivalPosLat="0.00" arrivalSpeed="9.76" duration="50.00" routeLength="427.95" waitingTime="0.00" waitingCount="0" stopTime="0.00" timeLoss="6.27" rerouteNo="0" devices="tripinfo_E4__0__car.0" vType="car" speedFactor="0.91" vaporized=""/>
    <tripinfo id="-E2__0__motorbike.2" depart="9.00" departLane="-E2_0" departPos="2.10" departPosLat="0.00" departSpeed="0.00" departDelay="2.20" arrival="55.00" arrivalLane="E3_0" arrivalPos="239.30" arrivalPosLat="0.00" arrivalSpeed="9.34" duration="46.00" routeLength="376.21" waitingTime="0.00" waitingCount="0" stopTime="0.00" timeLoss="6.81" rerouteNo="0" devices="tripinfo_-E2__0__motorbike.2" vType="motorbike" speedFactor="0.89" vaporized=""/>
    <tripinfo id="-E2__0__motorbike.4" depart="13.00" departLane="-E2_0" departPos="2.10" departPosLat="0.00" departSpeed="0.00" departDelay="0.68" arrival="58.00" arrivalLane="E3_0" arrivalPos="239.30" arrivalPosLat="0.00" arrivalSpeed="9.55" duration="45.00" routeLength="376.21" waitingTime="0.00" waitingCount="0" stopTime="0.00" timeLoss="6.13" rerouteNo="0" devices="tripinfo_-E2__0__motorbike.4" vType="motorbike" speedFactor="0.88" vaporized=""/>
    <tripinfo id="E6__0__car.0" depart="16.00" departLane="E6_1" departPos="4.60" departPosLat="0.00" departSpeed="0.00" departDelay="0.41" arrival="63.00" arrivalLane="-E4_0" arrivalPos="240.11" arrivalPosLat="1.20" arrivalSpeed="10.57" duration="47.00" routeLength="438.31" waitingTime="0.00" waitingCount="0" stopTime="0.00" timeLoss="6.89" rerouteNo="0" devices="tripinfo_E6__0__car.0" vType="car" speedFactor="1.10" vaporized=""/>
    <tripinfo id="-E2__0__motorbike.5" depart="22.00" departLane="-E2_1" departPos="2.10" departPosLat="0.00" departSpeed="0.00" departDelay="1.68" arrival="64.00" arrivalLane="E3_0" arrivalPos="239.30" arrivalPosLat="0.00" arrivalSpeed="10.86" duration="42.00" routeLength="376.21" waitingTime="0.00" waitingCount="0" stopTime="0.00" timeLoss="7.17" rerouteNo="0" devices="tripinfo_-E2__0__motorbike.5" vType="motorbike" speedFactor="0.98" vaporized=""/>
    <tripinfo id="E6__0__motorbike.0" depart="10.00" departLane="E6_1" departPos="2.10" departPosLat="0.00" departSpeed="0.00" departDelay="0.69" arrival="65.00" arrivalLane="-E4_0" arrivalPos="240.11" arrivalPosLat="0.00" arrivalSpeed="8.67" duration="55.00" routeLength="440.81" waitingTime="0.00" waitingCount="0" stopTime="0.00" timeLoss="5.25" rerouteNo="0" devices="tripinfo_E6__0__motorbike.0" vType="motorbike" speedFactor="0.81" vaporized=""/>
    <tripinfo id="-E2__0__motorbike.3" depart="12.00" departLane="-E2_1" departPos="2.10" departPosLat="0.00" departSpeed="0.00" departDelay="0.97" arrival="72.00" arrivalLane="E1_1" arrivalPos="165.93" arrivalPosLat="0.00" arrivalSpeed="10.07" duration="60.00" routeLength="313.23" waitingTime="20.00" waitingCount="1" stopTime="0.00" timeLoss="30.37" rerouteNo="0" devices="tripinfo_-E2__0__motorbike.3" vType="motorbike" speedFactor="0.96" vaporized=""/>
    <tripinfo id="-E2__0__car.0" depart="20.00" departLane="-E2_1" departPos="4.60" departPosLat="0.00" departSpeed="0.00" departDelay="0.72" arrival="74.00" arrivalLane="E1_1" arrivalPos="165.93" arrivalPosLat="0.00" arrivalSpeed="10.65" duration="54.00" routeLength="310.73" waitingTime="12.00" waitingCount="1" stopTime="0.00" timeLoss="24.81" rerouteNo="0" devices="tripinfo_-E2__0__car.0" vType="car" speedFactor="0.97" vaporized=""/>
    <tripinfo id="-E2__0__motorbike.7" depart="27.00" departLane="-E2_1" departPos="2.10" departPosLat="0.00" departSpeed="0.00" departDelay="0.05" arrival="77.00" arrivalLane="E1_0" arrivalPos="165.93" arrivalPosLat="0.20" arrivalSpeed="9.42" duration="50.00" routeLength="313.23" waitingTime="7.00" waitingCount="1" stopTime="0.00" timeLoss="17.49" rerouteNo="0" devices="tripinfo_-E2__0__motorbike.7" vType="motorbike" speedFactor="0.88" vaporized=""/>
    <tripinfo id="E6__0__motorbike.2" depart="16.00" departLane="E6_0" departPos="2.10" departPosLat="0.00" departSpeed="0.00" departDelay="0.92" arrival="78.00" arrivalLane="-E4_0" arrivalPos="240.11" arrivalPosLat="0.00" arrivalSpeed="10.67" duration="62.00" routeLength="440.81" waitingTime="8.00" waitingCount="1" stopTime="0.00" timeLoss="21.86" rerouteNo="0" devices="tripinfo_E6__0__motorbike.2" vType="motorbike" speedFactor="1.02" vaporized=""/>
    <tripinfo id="E4__0__motorbike.2" depart="29.00" departLane="E4_0" departPos="2.10" departPosLat="0.00" departSpeed="0.00" departDelay="2.60" arrival="80.00" arrivalLane="-E6_1" arrivalPos="183.41" arrivalPosLat="0.00" arrivalSpeed="10.89" duration="51.00" routeLength="430.45" waitingTime="1.00" waitingCount="1" stopTime="0.00" timeLoss="11.78" rerouteNo="0" devices="tripinfo_E4__0__motorbike.2" vType="motorbike" speedFactor="1.05" vaporized=""/>
    <tripinfo id="E6__0__car.2" depart="30.00" departLane="E6_0" departPos="4.60" departPosLat="0.00" departSpeed="0.00" departDelay="0.17" arrival="80.00" arrivalLane="-E4_0" arrivalPos="240.11" arrivalPosLat="0.00" arrivalSpeed="10.69" duration="50.00" routeLength="438.31" waitingTime="0.00" waitingCount="0" stopTime="0.00" timeLoss="10.51" rerouteNo="0" devices="tripinfo_E6__0__car.2" vType="car" speedFactor="1.19" vaporized=""/>
    <tripinfo id="-E2__0__motorbike.8" depart="41.00" departLane="-E2_0" departPos="2.10" departPosLat="0.00" departSpeed="0.00" departDelay="0.15" arrival="83.00" arrivalLane="E3_0" arrivalPos="239.30" arrivalPosLat="0.00" arrivalSpeed="10.74" duration="42.00" routeLength="376.21" waitingTime="0.00" waitingCount="0" stopTime="0.00" timeLoss="7.63" rerouteNo="0" devices="tripinfo_-E2__0__motorbike.8" vType="motorbike" speedFactor="1.11" vaporized=""/>
    <tripinfo id="-E2__0__motorbike.6" depart="26.00" departLane="-E2_0" departPos="2.10" departPosLat="0.00" departSpeed="0.00" departDelay="0.10" arrival="90.00" arrivalLane="-E6_0" arrivalPos="183.41" arrivalPosLat="0.00" arrivalSpeed="10.36" duration="64.00" routeLength="503.84" waitingTime="7.00" waitingCount="1" stopTime="0.00" timeLoss="18.07" rerouteNo="0" devices="tripinfo_-E2__0__motorbike.6" vType="motorbike" speedFactor="1.03" vaporized=""/>
    <tripinfo id="E6__0__car.1" depart="19.00" departLane="E6_0" departPos="4.60" departPosLat="0.00" departSpeed="0.00" departDelay="0.16" arrival="92.00" arrivalLane="E2_1" arrivalPos="129.98" arrivalPosLat="0.00" arrivalSpeed="10.52" duration="73.00" routeLength="501.41" waitingTime="8.00" waitingCount="1" stopTime="0.00" timeLoss="27.86" rerouteNo="0" devices="tripinfo_E6__0__car.1" vType="car" speedFactor="1.12" vaporized=""/>
    <tripinfo id="E6__0__motorbike.1" depart="12.00" departLane="E6_1" departPos="2.10" departPosLat="0.00" departSpeed="0.00" departDelay="0.74" arrival="93.00" arrivalLane="E2_0" arrivalPos="129.98" arrivalPosLat="0.00" arrivalSpeed="10.97" duration="81.00" routeLength="503.91" waitingTime="16.00" waitingCount="2" stopTime="0.00" timeLoss="34.99" rerouteNo="0" devices="tripinfo_E6__0__motorbike.1" vType="motorbike" speedFactor="1.01" vaporized=""/>
    <tripinfo id="E6__0__motorbike.4" depart="54.00" departLane="E6_1" departPos="2.10" departPosLat="0.00" departSpeed="0.00" departDelay="0.53" arrival="111.00" arrivalLane="-E4_0" arrivalPos="240.11" arrivalPosLat="0.00" arrivalSpeed="10.88" duration="57.00" routeLength="440.81" waitingTime="6.00" waitingCount="1" stopTime="0.00" timeLoss="15.87" rerouteNo="0" devices="tripinfo_E6__0__motorbike.4" vType="motorbike" speedFactor="0.98" vaporized=""/>
    <tripinfo id="E6__0__motorbike.3" depart="52.00" departLane="E6_0" departPos="2.10" departPosLat="0.00" departSpeed="0.00" departDelay="0.58" arrival="115.00" arrivalLane="-E4_0" arrivalPos="240.11" arrivalPosLat="0.00" arrivalSpeed="9.40" duration="63.00" routeLength="440.81" waitingTime="5.00" waitingCount="1" stopTime="0.00" timeLoss="15.28" rerouteNo="0" devices="tripinfo_E6__0__motorbike.3" vType="motorbike" speedFactor="0.85" vaporized=""/>
    <tripinfo id="-E2__1__motorbike.1" depart="75.00" departLane="-E2_0" departPos="2.10" departPosLat="0.00" departSpeed="0.00" departDelay="0.99" arrival="115.00" arrivalLane="E1_0" arrivalPos="165.93" arrivalPosLat="0.00" arrivalSpeed="9.04" duration="40.00" routeLength="313.23" waitingTime="0.00" waitingCount="0" stopTime="0.00" timeLoss="5.59" rerouteNo="0" devices="tripinfo_-E2__1__motorbike.1" vType="motorbike" speedFactor="0.84" vaporized=""/>
    <tripinfo id="-E2__0__car.1" depart="45.00" departLane="-E2_0" departPos="4.60" departPosLat="0.00" departSpeed="0.00" departDelay="3.70" arrival="119.00" arrivalLane="-E4_0" arrivalPos="240.11" arrivalPosLat="0.00" arrivalSpeed="10.79" duration="74.00" routeLength="546.27" waitingTime="11.00" waitingCount="1" stopTime="0.00" timeLoss="24.36" rerouteNo="0" devices="tripinfo_-E2__0__car.1" vType="car" speedFactor="1.06" vaporized=""/>
    <tripinfo id="E6__0__car.4" depart="44.00" departLane="E6_0" departPos="4.60" departPosLat="0.00" departSpeed="0.00" departDelay="0.72" arrival="120.00" arrivalLane="E2_0" arrivalPos="129.98" arrivalPosLat="0.00" arrivalSpeed="8.22" duration="76.00" routeLength="501.41" waitingTime="7.00" waitingCount="1" stopTime="0.00" timeLoss="16.38" rerouteNo="0" devices="tripinfo_E6__0__car.4" vType="car" speedFactor="0.76" vaporized=""/>
    <tripinfo id="E6__0__car.3" depart="43.00" departLane="E6_1" departPos="4.60" departPosLat="0.00" departSpeed="0.00" departDelay="0.13" arrival="121.00" arrivalLane="E3_0" arrivalPos="239.30" arrivalPosLat="0.00" arrivalSpeed="9.72" duration="78.00" routeLength="609.26" waitingTime="2.00" waitingCount="1" stopTime="0.00" timeLoss="16.20" rerouteNo="0" devices="tripinfo_E6__0__car.3" vType="car" speedFactor="0.90" vaporized=""/>
    <tripinfo id="-E2__1__motorbike.0" depart="62.00" departLane="-E2_0" departPos="2.10" departPosLat="0.00" departSpeed="0.00" departDelay="0.28" arrival="121.00" arrivalLane="-E6_0" arrivalPos="183.41" arrivalPosLat="0.00" arrivalSpeed="11.03" duration="59.00" routeLength="503.84" waitingTime="3.00" waitingCount="1" stopTime="0.00" timeLoss="13.58" rerouteNo="0" devices="tripinfo_-E2__1__motorbike.0" vType="motorbike" speedFactor="1.06" vaporized=""/>
    <tripinfo id="E6__0__car.5" depart="46.00" departLane="E6_1" departPos="4.60" departPosLat="0.00" departSpeed="0.00" departDelay="0.10" arrival="126.00" arrivalLane="E3_0" arrivalPos="239.30" arrivalPosLat="0.00" arrivalSpeed="8.62" duration="80.00" routeLength="609.26" waitingTime="0.00" waitingCount="0" stopTime="0.00" timeLoss="10.36" rerouteNo="0" devices="tripinfo_E6__0__car.5" vType="car" speedFactor="0.80" vaporized=""/>
    <tripinfo id="E6__1__motorbike.2" depart="84.00" departLane="E6_1" departPos="2.10" departPosLat="0.00" departSpeed="0.00" departDelay="0.00" arrival="127.00" arrivalLane="E5_1" arrivalPos="166.23" arrivalPosLat="0.00" arrivalSpeed="9.42" duration="43.00" routeLength="356.69" waitingTime="0.00" waitingCount="0" stopTime="0.00" timeLoss="6.71" rerouteNo="0" devices="tripinfo_E6__1__motorbike.2" vType="motorbike" speedFactor="0.92" vaporized=""/>
    <tripinfo id="E6__1__car.1" depart="92.00" departLane="E6_0" departPos="4.60" departPosLat="0.00" departSpeed="0.00" departDelay="0.59" arrival="134.00" arrivalLane="E5_1" arrivalPos="166.23" arrivalPosLat="0.00" arrivalSpeed="10.13" duration="42.00" routeLength="354.19" waitingTime="0.00" waitingCount="0" stopTime="0.00" timeLoss="6.86" rerouteNo="0" devices="tripinfo_E6__1__car.1" vType="car" speedFactor="0.93" vaporized=""/>
    <tripinfo id="E6__1__motorbike.1" depart="78.00" departLane="E6_0" departPos="2.10" departPosLat="0.00" departSpeed="0.00" departDelay="0.14" arrival="135.00" arrivalLane="-E4_0" arrivalPos="240.11" arrivalPosLat="0.00" arrivalSpeed="11.00" duration="57.00" routeLength="440.81" waitingTime="6.00" waitingCount="1" stopTime="0.00" timeLoss="17.01" rerouteNo="0" devices="tripinfo_E6__1__motorbike.1" vType="motorbike" speedFactor="1.05" vaporized=""/>
    <tripinfo id="E6__1__car.0" depart="64.00" departLane="E6_0" departPos="4.60" departPosLat="0.00" departSpeed="0.00" departDelay="1.69" arrival="136.00" arrivalLane="E1_0" arrivalPos="165.93" arrivalPosLat="0.00" arrivalSpeed="10.36" duration="72.00" routeLength="525.65" waitingTime="10.00" waitingCount="1" stopTime="0.00" timeLoss="24.23" rerouteNo="0" devices="tripinfo_E6__1__car.0" vType="car" speedFactor="1.03" vaporized=""/>
    <tripinfo id="-E2__1__motorbike.2" depart="84.00" departLane="-E2_0" departPos="2.10" departPosLat="0.00" departSpeed="0.00" departDelay="0.84" arrival="136.00" arrivalLane="E1_1" arrivalPos="165.93" arrivalPosLat="0.00" arrivalSpeed="10.86" duration="52.00" routeLength="313.23" waitingTime="12.00" waitingCount="1" stopTime="0.00" timeLoss="23.24" rerouteNo="0" devices="tripinfo_-E2__1__motorbike.2" vType="motorbike" speedFactor="1.14" vaporized=""/>
    <tripinfo id="-E2__1__car.0" depart="87.00" departLane="-E2_0" departPos="4.60" departPosLat="0.00" departSpeed="0.00" departDelay="1.14" arrival="138.00" arrivalLane="E1_1" arrivalPos="165.93" arrivalPosLat="0.00" arrivalSpeed="10.44" duration="51.00" routeLength="310.73" waitingTime="9.00" waitingCount="1" stopTime="0.00" timeLoss="22.76" rerouteNo="0" devices="tripinfo_-E2__1__car.0" vType="car" speedFactor="1.06" vaporized=""/>
    <tripinfo id="-E2__1__motorbike.6" depart="108.00" departLane="-E2_0" departPos="2.10" departPosLat="0.00" departSpeed="0.00" departDelay="0.08" arrival="143.00" arrivalLane="E1_1" arrivalPos="165.93" arrivalPosLat="0.00" arrivalSpeed="10.43" duration="35.00" routeLength="313.23" waitingTime="0.00" waitingCount="0" stopTime="0.00" timeLoss="5.69" rerouteNo="0" devices="tripinfo_-E2__1__motorbike.6" vType="motorbike" speedFactor="1.07" vaporized=""/>
    <tripinfo id="E6__1__motorbike.0" depart="61.00" departLane="E6_0" departPos="2.10" departPosLat="0.00" departSpeed="0.00" departDelay="0.71" arrival="149.00" arrivalLane="E3_0" arrivalPos="239.30" arrivalPosLat="0.00" arrivalSpeed="9.69" duration="88.00" routeLength="611.76" waitingTime="12.00" waitingCount="1" stopTime="0.00" timeLoss="24.58" rerouteNo="0" devices="tripinfo_E6__1__motorbike.0" vType="motorbike" speedFactor="0.88" vaporized=""/>
    <tripinfo id="-E2__1__motorbike.3" depart="89.00" departLane="-E2_1" departPos="2.10" departPosLat="0.00" departSpeed="0.00" departDelay="1.65" arrival="154.00" arrivalLane="-E6_0" arrivalPos="183.41" arrivalPosLat="0.00" arrivalSpeed="10.63" duration="65.00" routeLength="503.84" waitingTime="8.00" waitingCount="1" stopTime="0.00" timeLoss="19.08" rerouteNo="0" devices="tripinfo_-E2__1__motorbike.3" vType="motorbike" speedFactor="1.00" vaporized=""/>
    <tripinfo id="E6__1__motorbike.3" depart="94.00" departLane="E6_1" departPos="2.10" departPosLat="0.00" departSpeed="0.00" departDelay="0.65" arrival="168.00" arrivalLane="E1_0" arrivalPos="165.93" arrivalPosLat="0.00" arrivalSpeed="10.38" duration="74.00" routeLength="528.15" waitingTime="14.00" waitingCount="1" stopTime="0.00" timeLoss="25.84" rerouteNo="0" devices="tripinfo_E6__1__motorbike.3" vType="motorbike" speedFactor="1.07" vaporized=""/>
    <tripinfo id="-E2__2__motorbike.1" depart="130.00" departLane="-E2_0" departPos="2.10" departPosLat="0.00" departSpeed="0.00" departDelay="0.41" arrival="169.00" arrivalLane="E1_1" arrivalPos="165.93" arrivalPosLat="0.00" arrivalSpeed="10.85" duration="39.00" routeLength="313.23" waitingTime="0.00" waitingCount="0" stopTime="0.00" timeLoss="9.88" rerouteNo="0" devices="tripinfo_-E2__2__motorbike.1" vType="motorbike" speedFactor="1.03" vaporized=""/>
    <tripinfo id="-E2__2__motorbike.3" depart="138.00" departLane="-E2_1" departPos="2.10" departPosLat="0.00" departSpeed="0.00" departDelay="0.91" arrival="174.00" arrivalLane="E1_1" arrivalPos="165.93" arrivalPosLat="0.00" arrivalSpeed="10.34" duration="36.00" routeLength="313.23" waitingTime="0.00" waitingCount="0" stopTime="0.00" timeLoss="6.65" rerouteNo="0" devices="tripinfo_-E2__2__motorbike.3" vType="motorbike" speedFactor="0.97" vaporized=""/>
    <tripinfo id="E6__1__car.3" depart="95.00" departLane="E6_0" departPos="4.60" departPosLat="0.00" departSpeed="0.00" departDelay="0.65" arrival="175.00" arrivalLane="-E4_0" arrivalPos="240.11" arrivalPosLat="0.00" arrivalSpeed="10.67" duration="80.00" routeLength="438.31" waitingTime="25.00" waitingCount="2" stopTime="0.00" timeLoss="39.56" rerouteNo="0" devices="tripinfo_E6__1__car.3" vType="car" speedFactor="1.01" vaporized=""/>
    <tripinfo id="-E2__2__motorbike.2" depart="137.00" departLane="-E2_0" departPos="2.10" departPosLat="0.00" departSpeed="0.00" departDelay="0.39" arrival="176.00" arrivalLane="E1_0" arrivalPos="165.93" arrivalPosLat="0.00" arrivalSpeed="9.36" duration="39.00" routeLength="313.23" waitingTime="0.00" waitingCount="0" stopTime="0.00" timeLoss="5.54" rerouteNo="0" devices="tripinfo_-E2__2__motorbike.2" vType="motorbike" speedFactor="0.86" vaporized=""/>
    <tripinfo id="E6__1__car.4" depart="105.00" departLane="E6_1" departPos="4.60" departPosLat="0.00" departSpeed="0.00" departDelay="0.58" arrival="177.00" arrivalLane="-E4_0" arrivalPos="240.11" arrivalPosLat="0.00" arrivalSpeed="10.97" duration="72.00" routeLength="438.31" waitingTime="13.00" waitingCount="2" stopTime="0.00" timeLoss="31.58" rerouteNo="0" devices="tripinfo_E6__1__car.4" vType="car" speedFactor="1.22" vaporized=""/>
    <tripinfo id="E6__1__motorbike.4" depart="98.00" departLane="E6_0" departPos="2.10" departPosLat="0.00" departSpeed="0.00" departDelay="2.85" arrival="180.00" arrivalLane="E3_0" arrivalPos="239.30" arrivalPosLat="0.00" arrivalSpeed="9.71" duration="82.00" routeLength="611.76" waitingTime="6.00" waitingCount="1" stopTime="0.00" timeLoss="22.22" rerouteNo="0" devices="tripinfo_E6__1__motorbike.4" vType="motorbike" speedFactor="0.93" vaporized=""/>
    <tripinfo id="-E2__1__car.1" depart="111.00" departLane="-E2_1" departPos="4.60" departPosLat="0.00" departSpeed="0.00" departDelay="0.56" arrival="180.00" arrivalLane="-E6_1" arrivalPos="183.41" arrivalPosLat="0.00" arrivalSpeed="10.22" duration="69.00" routeLength="501.34" waitingTime="9.00" waitingCount="1" stopTime="0.00" timeLoss="19.91" rerouteNo="0" devices="tripinfo_-E2__1__car.1" vType="car" speedFactor="0.93" vaporized=""/>
    <tripinfo id="-E2__1__motorbike.7" depart="112.00" departLane="-E2_0" departPos="2.10" departPosLat="0.00" departSpeed="0.00" departDelay="1.51" arrival="180.00" arrivalLane="-E6_0" arrivalPos="183.41" arrivalPosLat="0.00" arrivalSpeed="10.60" duration="68.00" routeLength="503.84" waitingTime="10.00" waitingCount="1" stopTime="0.00" timeLoss="21.87" rerouteNo="0" devices="tripinfo_-E2__1__motorbike.7" vType="motorbike" speedFactor="1.14" vaporized=""/>
    <tripinfo id="E6__1__car.2" depart="97.00" departLane="E6_1" departPos="4.60" departPosLat="0.00" departSpeed="0.00" departDelay="3.34" arrival="182.00" arrivalLane="E2_0" arrivalPos="129.98" arrivalPosLat="0.00" arrivalSpeed="10.53" duration="85.00" routeLength="501.41" waitingTime="17.00" waitingCount="2" stopTime="0.00" timeLoss="37.14" rerouteNo="0" devices="tripinfo_E6__1__car.2" vType="car" speedFactor="0.96" vaporized=""/>
    <tripinfo id="E6__1__motorbike.5" depart="103.00" departLane="E6_0" departPos="2.10" departPosLat="0.00" departSpeed="0.00" departDelay="0.38" arrival="182.00" arrivalLane="E3_0" arrivalPos="239.30" arrivalPosLat="0.00" arrivalSpeed="11.07" duration="79.00" routeLength="611.76" waitingTime="4.00" waitingCount="3" stopTime="0.00" timeLoss="23.49" rerouteNo="0" devices="tripinfo_E6__1__motorbike.5" vType="motorbike" speedFactor="1.07" vaporized=""/>
    <tripinfo id="-E2__1__motorbike.5" depart="105.00" departLane="-E2_0" departPos="2.10" departPosLat="0.00" departSpeed="0.00" departDelay="0.02" arrival="184.00" arrivalLane="-E4_0" arrivalPos="240.11" arrivalPosLat="0.00" arrivalSpeed="10.44" duration="79.00" routeLength="548.77" waitingTime="15.00" waitingCount="1" stopTime="0.00" timeLoss="28.29" rerouteNo="0" devices="tripinfo_-E2__1__motorbike.5" vType="motorbike" speedFactor="1.00" vaporized=""/>
    <tripinfo id="E6__2__motorbike.1" depart="146.00" departLane="E6_1" departPos="2.10" departPosLat="0.00" departSpeed="0.00" departDelay="0.93" arrival="186.00" arrivalLane="E5_1" arrivalPos="166.23" arrivalPosLat="0.00" arrivalSpeed="10.50" duration="40.00" routeLength="356.69" waitingTime="0.00" waitingCount="0" stopTime="0.00" timeLoss="7.10" rerouteNo="0" devices="tripinfo_E6__2__motorbike.1" vType="motorbike" speedFactor="0.99" vaporized=""/>
    <tripinfo id="E6__2__motorbike.0" depart="144.00" departLane="E6_1" departPos="2.10" departPosLat="0.00" departSpeed="0.00" departDelay="0.42" arrival="187.00" arrivalLane="E5_0" arrivalPos="166.23" arrivalPosLat="0.00" arrivalSpeed="9.52" duration="43.00" routeLength="356.69" waitingTime="0.00" waitingCount="0" stopTime="0.00" timeLoss="5.79" rerouteNo="0" devices="tripinfo_E6__2__motorbike.0" vType="motorbike" speedFactor="0.89" vaporized=""/>
    <tripinfo id="-E2__1__car.2" depart="115.00" departLane="-E2_1" departPos="4.60" departPosLat="0.00" departSpeed="0.00" departDelay="2.76" arrival="189.00" arrivalLane="-E4_0" arrivalPos="240.11" arrivalPosLat="0.00" arrivalSpeed="10.43" duration="74.00" routeLength="546.27" waitingTime="5.00" waitingCount="1" stopTime="0.00" timeLoss="23.90" rerouteNo="0" devices="tripinfo_-E2__1__car.2" vType="car" speedFactor="1.15" vaporized=""/>
    <tripinfo id="-E2__2__car.0" depart="154.00" departLane="-E2_1" departPos="4.60" departPosLat="0.00" departSpeed="0.00" departDelay="0.84" arrival="189.00" arrivalLane="E1_1" arrivalPos="165.93" arrivalPosLat="0.00" arrivalSpeed="10.61" duration="35.00" routeLength="310.73" waitingTime="0.00" waitingCount="0" stopTime="0.00" timeLoss="5.85" rerouteNo="0" devices="tripinfo_-E2__2__car.0" vType="car" speedFactor="0.97" vaporized=""/>
    <tripinfo id="-E2__1__motorbike.4" depart="96.00" departLane="-E2_0" departPos="2.10" departPosLat="0.00" departSpeed="0.00" departDelay="0.30" arrival="192.00" arrivalLane="E5_1" arrivalPos="166.23" arrivalPosLat="0.00" arrivalSpeed="10.77" duration="96.00" routeLength="485.20" waitingTime="28.00" waitingCount="3" stopTime="0.00" timeLoss="51.17" rerouteNo="0" devices="tripinfo_-E2__1__motorbike.4" vType="motorbike" speedFactor="1.02" vaporized=""/>
    <tripinfo id="E6__2__motorbike.3" depart="152.00" departLane="E6_0" departPos="2.10" departPosLat="0.00" departSpeed="0.00" departDelay="0.28" arrival="192.00" arrivalLane="E5_0" arrivalPos="166.23" arrivalPosLat="0.00" arrivalSpeed="10.43" duration="40.00" routeLength="356.69" waitingTime="0.00" waitingCount="0" stopTime="0.00" timeLoss="7.15" rerouteNo="0" devices="tripinfo_E6__2__motorbike.3" vType="motorbike" speedFactor="1.07" vaporized=""/>
    <tripinfo id="E6__2__car.0" depart="122.00" departLane="E6_1" departPos="4.60" departPosLat="0.00" departSpeed="0.00" departDelay="0.79" arrival="200.00" arrivalLane="-E4_0" arrivalPos="240.11" arrivalPosLat="0.00" arrivalSpeed="10.37" duration="78.00" routeLength="438.31" waitingTime="19.00" waitingCount="2" stopTime="0.00" timeLoss="37.58" rerouteNo="0" devices="tripinfo_E6__2__car.0" vType="car" speedFactor="1.10" vaporized=""/>
    <tripinfo id="-E2__2__motorbike.0" depart="126.00" departLane="-E2_1" departPos="2.10" departPosLat="0.00" departSpeed="0.00" departDelay="0.59" arrival="202.00" arrivalLane="-E6_0" arrivalPos="183.41" arrivalPosLat="0.00" arrivalSpeed="11.00" duration="76.00" routeLength="503.84" waitingTime="16.00" waitingCount="1" stopTime="0.00" timeLoss="30.62" rerouteNo="0" devices="tripinfo_-E2__2__motorbike.0" vType="motorbike" speedFactor="1.05" vaporized=""/>
    <tripinfo id="E6__2__motorbike.6" depart="165.00" departLane="E6_0" departPos="2.10" departPosLat="0.00" departSpeed="0.00" departDelay="0.24" arrival="205.00" arrivalLane="E5_0" arrivalPos="166.23" arrivalPosLat="0.00" arrivalSpeed="10.87" duration="40.00" routeLength="356.69" waitingTime="0.00" waitingCount="0" stopTime="0.00" timeLoss="6.85" rerouteNo="0" devices="tripinfo_E6__2__motorbike.6" vType="motorbike" speedFactor="1.21" vaporized=""/>
    <tripinfo id="E6__2__motorbike.2" depart="147.00" departLane="E6_0" departPos="2.10" departPosLat="0.00" departSpeed="0.00" departDelay="0.26" arrival="214.00" arrivalLane="E2_0" arrivalPos="129.98" arrivalPosLat="0.00" arrivalSpeed="10.26" duration="67.00" routeLength="503.91" waitingTime="8.00" waitingCount="1" stopTime="0.00" timeLoss="18.85" rerouteNo="0" devices="tripinfo_E6__2__motorbike.2" vType="motorbike" speedFactor="0.95" vaporized=""/>
    <tripinfo id="E6__2__motorbike.4" depart="154.00" departLane="E6_0" departPos="2.10" departPosLat="0.00" departSpeed="0.00" departDelay="0.61" arrival="223.00" arrivalLane="-E4_0" arrivalPos="240.11" arrivalPosLat="0.00" arrivalSpeed="11.03" duration="69.00" routeLength="440.81" waitingTime="16.00" waitingCount="1" stopTime="0.00" timeLoss="28.05" rerouteNo="0" devices="tripinfo_E6__2__motorbike.4" vType="motorbike" speedFactor="1.00" vaporized=""/>
    <tripinfo id="-E2__2__motorbike.4" depart="160.00" departLane="-E2_0" departPos="2.10" departPosLat="0.00" departSpeed="0.00" departDelay="0.23" arrival="224.00" arrivalLane="E5_0" arrivalPos="166.23" arrivalPosLat="0.20" arrivalSpeed="10.72" duration="64.00" routeLength="485.20" waitingTime="8.00" waitingCount="1" stopTime="0.00" timeLoss="19.76" rerouteNo="0" devices="tripinfo_-E2__2__motorbike.4" vType="motorbike" speedFactor="1.07" vaporized=""/>
    <tripinfo id="-E2__2__car.1" depart="171.00" departLane="-E2_1" departPos="4.60" departPosLat="0.00" departSpeed="0.00" departDelay="0.17" arrival="224.00" arrivalLane="E1_1" arrivalPos="165.93" arrivalPosLat="0.00" arrivalSpeed="10.79" duration="53.00" routeLength="310.73" waitingTime="12.00" waitingCount="1" stopTime="0.00" timeLoss="24.04" rerouteNo="0" devices="tripinfo_-E2__2__car.1" vType="car" speedFactor="1.01" vaporized=""/>
    <tripinfo id="-E2__2__motorbike.5" depart="173.00" departLane="-E2_0" departPos="2.10" departPosLat="0.00" departSpeed="0.00" departDelay="1.60" arrival="226.00" arrivalLane="E1_1" arrivalPos="165.93" arrivalPosLat="0.00" arrivalSpeed="10.69" duration="53.00" routeLength="313.23" waitingTime="11.00" waitingCount="1" stopTime="0.00" timeLoss="23.63" rerouteNo="0" devices="tripinfo_-E2__2__motorbike.5" vType="motorbike" speedFactor="1.05" vaporized=""/>
    <tripinfo id="E6__2__car.2" depart="179.00" departLane="E6_1" departPos="4.60" departPosLat="0.00" departSpeed="0.00" departDelay="1.44" arrival="226.00" arrivalLane="-E4_0" arrivalPos="240.11" arrivalPosLat="0.00" arrivalSpeed="10.43" duration="47.00" routeLength="438.31" waitingTime="0.00" waitingCount="0" stopTime="0.00" timeLoss="6.48" rerouteNo="0" devices="tripinfo_E6__2__car.2" vType="car" speedFactor="1.02" vaporized=""/>