<?xml version="1.0" encoding="UTF-8"?>

<!-- generated on 2026-01-15T10:40:42.928224+07:00 by Eclipse SUMO GUI 1.25.0
<sumoConfiguration xmlns:xsi="http://www.w3.org/2001/XMLSchema-instance" xsi:noNamespaceSchemaLocation="http://sumo.dlr.de/xsd/sumoConfiguration.xsd">

    <input>
        <net-file value="Scenario/1node/env/1node.net.xml"/>
        <route-files value="Scenario/1node/env/../routes/vehicle.rou.xml"/>
        <additional-files value="Scenario/1node/env/../add/e2.add.xml"/>
    </input>

    <output>
        <netstate-dump value="Scenario/1node/env/../output/e2.netstate.xml"/>
        <netstate-dump.precision value="2"/>
        <summary-output value="Scenario/1node/env/../output/e2_summary.output.xml"/>
        <tripinfo-output value="Scenario/1node/env/../output/e2.tripinfo.xml"/>
    </output>

    <time>
        <begin value="0"/>
        <end value="500"/>
        <step-length value="0.1"/>
    </time>

    <processing>
        <lateral-resolution value="0.2"/>
    </processing>

</sumoConfiguration>
-->

<tripinfos xmlns:xsi="http://www.w3.org/2001/XMLSchema-instance" xsi:noNamespaceSchemaLocation="http://sumo.dlr.de/xsd/tripinfo_file.xsd">
    <tripinfo id="E0__0__motorbike.0" depart="4.20" departLane="E0_2" departPos="2.10" departPosLat="0.00" departSpeed="0.00" departDelay="0.04" arrival="40.40" arrivalLane="E3_2" arrivalPos="170.01" arrivalPosLat="0.00" arrivalSpeed="11.08" duration="36.20" routeLength="343.37" waitingTime="0.00" waitingCount="0" stopTime="0.00" timeLoss="4.90" rerouteNo="0" devices="tripinfo_E0__0__motorbike.0" vType="motorbike" speedFactor="1.01" vaporized=""/>
    <tripinfo id="E0__0__car.0" depart="6.10" departLane="E0_1" departPos="4.60" departPosLat="0.00" departSpeed="0.00" departDelay="0.11" arrival="42.40" arrivalLane="E3_2" arrivalPos="170.01" arrivalPosLat="0.00" arrivalSpeed="11.06" duration="36.30" routeLength="340.87" waitingTime="0.00" waitingCount="0" stopTime="0.00" timeLoss="5.29" rerouteNo="0" devices="tripinfo_E0__0__car.0" vType="car" speedFactor="1.03" vaporized=""/>
    <tripinfo id="E0__0__motorbike.1" depart="8.00" departLane="E0_2" departPos="2.10" departPosLat="0.00" departSpeed="0.00" departDelay="0.05" arrival="46.00" arrivalLane="E3_2" arrivalPos="170.01" arrivalPosLat="0.00" arrivalSpeed="10.36" duration="38.00" routeLength="343.37" waitingTime="0.00" waitingCount="0" stopTime="0.00" timeLoss="4.63" rerouteNo="0" devices="tripinfo_E0__0__motorbike.1" vType="motorbike" speedFactor="0.94" vaporized=""/>
    <tripinfo id="-E1__0__motorbike.0" depart="10.90" departLane="-E1_2" departPos="2.10" departPosLat="0.00" departSpeed="0.00" departDelay="0.02" arrival="53.50" arrivalLane="-E0_2" arrivalPos="156.08" arrivalPosLat="0.00" arrivalSpeed="11.07" duration="42.60" routeLength="349.58" waitingTime="1.10" waitingCount="1" stopTime="0.00" timeLoss="10.89" rerouteNo="0" devices="tripinfo_-E1__0__motorbike.0" vType="motorbike" speedFactor="1.09" vaporized=""/>
    <tripinfo id="-E1__0__motorbike.1" depart="16.00" departLane="-E1_2" departPos="2.10" departPosLat="0.00" departSpeed="0.00" departDelay="0.07" arrival="54.80" arrivalLane="-E0_2" arrivalPos="156.08" arrivalPosLat="0.00" arrivalSpeed="10.95" duration="38.80" routeLength="349.58" waitingTime="0.00" waitingCount="0" stopTime="0.00" timeLoss="6.62" rerouteNo="0" devices="tripinfo_-E1__0__motorbike.1" vType="motorbike" speedFactor="0.99" vaporized=""/>
    <tripinfo id="-E1__0__car.0" depart="17.50" departLane="-E1_1" departPos="4.60" departPosLat="0.00" departSpeed="0.00" departDelay="0.13" arrival="59.00" arrivalLane="E3_1" arrivalPos="170.01" arrivalPosLat="0.00" arrivalSpeed="9.75" duration="41.50" routeLength="362.47" waitingTime="0.00" waitingCount="0" stopTime="0.00" timeLoss="4.34" rerouteNo="0" devices="tripinfo_-E1__0__car.0" vType="car" speedFactor="0.88" vaporized=""/>
    <tripinfo id="-E1__0__motorbike.2" depart="26.70" departLane="-E1_1" departPos="2.10" departPosLat="0.00" departSpeed="0.00" departDelay="0.00" arrival="65.30" arrivalLane="E3_1" arrivalPos="170.01" arrivalPosLat="0.00" arrivalSpeed="10.81" duration="38.60" routeLength="364.97" waitingTime="0.00" waitingCount="0" stopTime="0.00" timeLoss="4.82" rerouteNo="0" devices="tripinfo_-E1__0__motorbike.2" vType="motorbike" speedFactor="0.97" vaporized=""/>
    <tripinfo id="-E1__0__car.1" depart="29.10" departLane="-E1_2" departPos="4.60" departPosLat="0.00" departSpeed="0.00" departDelay="0.31" arrival="69.60" arrivalLane="-E0_2" arrivalPos="156.08" arrivalPosLat="0.00" arrivalSpeed="9.63" duration="40.50" routeLength="347.08" waitingTime="0.00" waitingCount="0" stopTime="0.00" timeLoss="4.23" rerouteNo="0" devices="tripinfo_-E1__0__car.1" vType="car" speedFactor="0.87" vaporized=""/>
    <tripinfo id="-E1__0__motorbike.3" depart="36.80" departLane="-E1_1" departPos="2.10" departPosLat="0.00" departSpeed="0.00" departDelay="0.01" arrival="74.40" arrivalLane="E3_1" arrivalPos="170.01" arrivalPosLat="0.00" arrivalSpeed="11.08" duration="37.60" routeLength="364.97" waitingTime="0.00" waitingCount="0" stopTime="0.00" timeLoss="4.70" rerouteNo="0" devices="tripinfo_-E1__0__motorbike.3" vType="motorbike" speedFactor="1.13" vaporized=""/>
    <tripinfo id="-E1__0__motorbike.4" depart="40.60" departLane="-E1_2" departPos="2.10" departPosLat="0.00" departSpeed="0.00" departDelay="0.06" arrival="79.60" arrivalLane="-E0_2" arrivalPos="156.08" arrivalPosLat="0.00" arrivalSpeed="10.31" duration="39.00" routeLength="349.58" waitingTime="0.00" waitingCount="0" stopTime="0.00" timeLoss="4.79" rerouteNo="0" devices="tripinfo_-E1__0__motorbike.4" vType="motorbike" speedFactor="0.93" vaporized=""/>
    <tripinfo id="-E2__0__motorbike.4" depart="12.80" departLane="-E2_1" departPos="2.10" departPosLat="0.00" departSpeed="0.00" departDelay="0.48" arrival="86.80" arrivalLane="-E0_1" arrivalPos="156.08" arrivalPosLat="0.00" arrivalSpeed="11.08" duration="74.00" routeLength="323.10" waitingTime="34.70" waitingCount="1" stopTime="0.00" timeLoss="44.89" rerouteNo="0" devices="tripinfo_-E2__0__motorbike.4" vType="motorbike" speedFactor="1.05" vaporized=""/>
    <tripinfo id="-E2__0__motorbike.2" depart="6.90" departLane="-E2_2" departPos="2.10" departPosLat="0.00" departSpeed="0.00" departDelay="0.10" arrival="88.40" arrivalLane="E1_2" arrivalPos="176.25" arrivalPosLat="1.05" arrivalSpeed="11.08" duration="81.50" routeLength="341.82" waitingTime="39.40" waitingCount="1" stopTime="0.00" timeLoss="50.46" rerouteNo="0" devices="tripinfo_-E2__0__motorbike.2" vType="motorbike" speedFactor="1.05" vaporized=""/>
    <tripinfo id="-E2__0__car.1" depart="41.40" departLane="-E2_1" departPos="4.60" departPosLat="0.00" departSpeed="0.00" departDelay="0.10" arrival="88.80" arrivalLane="-E0_1" arrivalPos="156.08" arrivalPosLat="0.00" arrivalSpeed="11.06" duration="47.40" routeLength="320.60" waitingTime="2.90" waitingCount="1" stopTime="0.00" timeLoss="18.46" rerouteNo="0" devices="tripinfo_-E2__0__car.1" vType="car" speedFactor="1.15" vaporized=""/>
    <tripinfo id="-E2__0__motorbike.0" depart="3.60" departLane="-E2_2" departPos="2.10" departPosLat="0.00" departSpeed="0.00" departDelay="0.02" arrival="89.20" arrivalLane="E1_2" arrivalPos="176.25" arrivalPosLat="0.00" arrivalSpeed="10.37" duration="85.60" routeLength="341.82" waitingTime="43.40" waitingCount="1" stopTime="0.00" timeLoss="52.41" rerouteNo="0" devices="tripinfo_-E2__0__motorbike.0" vType="motorbike" speedFactor="0.94" vaporized=""/>
    <tripinfo id="-E2__0__motorbike.3" depart="11.10" departLane="-E2_2" departPos="2.10" departPosLat="0.00" departSpeed="0.00" departDelay="0.07" arrival="90.10" arrivalLane="E1_2" arrivalPos="176.25" arrivalPosLat="0.77" arrivalSpeed="11.09" duration="79.00" routeLength="341.82" waitingTime="33.60" waitingCount="1" stopTime="0.00" timeLoss="47.89" rerouteNo="0" devices="tripinfo_-E2__0__motorbike.3" vType="motorbike" speedFactor="1.03" vaporized=""/>
    <tripinfo id="-E2__0__motorbike.1" depart="6.60" departLane="-E2_1" departPos="2.10" departPosLat="0.00" departSpeed="0.00" departDelay="0.06" arrival="91.10" arrivalLane="E1_1" arrivalPos="176.25" arrivalPosLat="-0.00" arrivalSpeed="9.23" duration="84.50" routeLength="341.82" waitingTime="39.20" waitingCount="1" stopTime="0.00" timeLoss="47.03" rerouteNo="0" devices="tripinfo_-E2__0__motorbike.1" vType="motorbike" speedFactor="0.83" vaporized=""/>
    <tripinfo id="-E2__0__car.0" depart="19.30" departLane="-E2_1" departPos="4.60" departPosLat="0.00" departSpeed="0.00" departDelay="0.02" arrival="92.30" arrivalLane="E1_2" arrivalPos="176.25" arrivalPosLat="0.00" arrivalSpeed="10.39" duration="73.00" routeLength="339.32" waitingTime="25.00" waitingCount="1" stopTime="0.00" timeLoss="40.19" rerouteNo="0" devices="tripinfo_-E2__0__car.0" vType="car" speedFactor="0.94" vaporized=""/>
    <tripinfo id="-E2__0__motorbike.6" depart="25.90" departLane="-E2_1" departPos="2.10" departPosLat="0.00" departSpeed="0.00" departDelay="0.00" arrival="93.70" arrivalLane="E1_2" arrivalPos="176.25" arrivalPosLat="1.15" arrivalSpeed="11.09" duration="67.80" routeLength="341.82" waitingTime="21.10" waitingCount="1" stopTime="0.00" timeLoss="36.71" rerouteNo="0" devices="tripinfo_-E2__0__motorbike.6" vType="motorbike" speedFactor="1.01" vaporized=""/>
    <tripinfo id="-E2__0__motorbike.5" depart="20.40" departLane="-E2_2" departPos="2.10" departPosLat="0.00" departSpeed="0.00" departDelay="0.08" arrival="93.80" arrivalLane="E1_2" arrivalPos="176.25" arrivalPosLat="-0.44" arrivalSpeed="10.37" duration="73.40" routeLength="341.82" waitingTime="23.70" waitingCount="1" stopTime="0.00" timeLoss="40.18" rerouteNo="0" devices="tripinfo_-E2__0__motorbike.5" vType="motorbike" speedFactor="0.94" vaporized=""/>
    <tripinfo id="-E2__0__motorbike.8" depart="40.90" departLane="-E2_2" departPos="2.10" departPosLat="0.00" departSpeed="0.00" departDelay="0.05" arrival="94.90" arrivalLane="E1_1" arrivalPos="176.25" arrivalPosLat="-0.00" arrivalSpeed="11.11" duration="54.00" routeLength="341.82" waitingTime="8.20" waitingCount="1" stopTime="0.00" timeLoss="23.16" rerouteNo="0" devices="tripinfo_-E2__0__motorbike.8" vType="motorbike" speedFactor="1.18" vaporized=""/>
    <tripinfo id="-E2__0__motorbike.7" depart="27.00" departLane="-E2_2" departPos="2.10" departPosLat="0.00" departSpeed="0.00" departDelay="0.05" arrival="95.70" arrivalLane="E1_2" arrivalPos="176.25" arrivalPosLat="0.00" arrivalSpeed="9.86" duration="68.70" routeLength="341.82" waitingTime="19.70" waitingCount="1" stopTime="0.00" timeLoss="33.63" rerouteNo="0" devices="tripinfo_-E2__0__motorbike.7" vType="motorbike" speedFactor="0.89" vaporized=""/>
    <tripinfo id="-E2__1__car.0" depart="75.60" departLane="-E2_1" departPos="4.60" departPosLat="0.00" departSpeed="0.00" departDelay="0.01" arrival="109.30" arrivalLane="-E0_1" arrivalPos="156.08" arrivalPosLat="0.00" arrivalSpeed="11.11" duration="33.70" routeLength="320.60" waitingTime="0.00" waitingCount="0" stopTime="0.00" timeLoss="4.80" rerouteNo="0" devices="tripinfo_-E2__1__car.0" vType="car" speedFactor="1.02" vaporized=""/>
    <tripinfo id="-E2__1__motorbike.0" depart="69.40" departLane="-E2_2" departPos="2.10" departPosLat="0.00" departSpeed="0.00" departDelay="0.09" arrival="110.10" arrivalLane="E1_1" arrivalPos="176.25" arrivalPosLat="1.16" arrivalSpeed="9.44" duration="40.70" routeLength="341.82" waitingTime="0.00" waitingCount="0" stopTime="0.00" timeLoss="4.26" rerouteNo="0" devices="tripinfo_-E2__1__motorbike.0" vType="motorbike" speedFactor="0.85" vaporized=""/>
    <tripinfo id="-E2__1__motorbike.1" depart="71.30" departLane="-E2_1" departPos="2.10" departPosLat="0.00" departSpeed="0.00" departDelay="0.04" arrival="111.10" arrivalLane="E1_2" arrivalPos="176.25" arrivalPosLat="0.06" arrivalSpeed="11.06" duration="39.80" routeLength="341.82" waitingTime="0.00" waitingCount="0" stopTime="0.00" timeLoss="8.65" rerouteNo="0" devices="tripinfo_-E2__1__motorbike.1" vType="motorbike" speedFactor="1.02" vaporized=""/>
    <tripinfo id="-E2__1__motorbike.2" depart="75.10" departLane="-E2_2" departPos="2.10" departPosLat="0.00" departSpeed="0.00" departDelay="0.02" arrival="112.20" arrivalLane="E1_2" arrivalPos="176.25" arrivalPosLat="0.00" arrivalSpeed="11.06" duration="37.10" routeLength="341.82" waitingTime="0.00" waitingCount="0" stopTime="0.00" timeLoss="6.24" rerouteNo="0" devices="tripinfo_-E2__1__motorbike.2" vType="motorbike" speedFactor="1.14" vaporized=""/>
    <tripinfo id="-E3__0__car.0" depart="0.90" departLane="-E3_1" departPos="4.60" departPosLat="0.00" departSpeed="0.00" departDelay="0.06" arrival="118.80" arrivalLane="E2_2" arrivalPos="148.30" arrivalPosLat="0.00" arrivalSpeed="11.04" duration="117.90" routeLength="333.09" waitingTime="77.10" waitingCount="1" stopTime="0.00" timeLoss="87.69" rerouteNo="0" devices="tripinfo_-E3__0__car.0" vType="car" speedFactor="1.06" vaporized=""/>
    <tripinfo id="-E3__0__motorbike.0" depart="5.70" departLane="-E3_2" departPos="2.10" departPosLat="0.00" departSpeed="0.00" departDelay="0.02" arrival="120.30" arrivalLane="E2_2" arrivalPos="148.30" arrivalPosLat="0.00" arrivalSpeed="11.09" duration="114.60" routeLength="335.59" waitingTime="70.20" waitingCount="1" stopTime="0.00" timeLoss="84.17" rerouteNo="0" devices="tripinfo_-E3__0__motorbike.0" vType="motorbike" speedFactor="1.08" vaporized=""/>
    <tripinfo id="-E3__1__motorbike.2" depart="72.80" departLane="-E3_2" departPos="2.10" departPosLat="0.00" departSpeed="0.00" departDelay="0.39" arrival="121.10" arrivalLane="-E0_1" arrivalPos="156.08" arrivalPosLat="0.00" arrivalSpeed="11.06" duration="48.30" routeLength="333.07" waitingTime="1.30" waitingCount="1" stopTime="0.00" timeLoss="17.71" rerouteNo="0" devices="tripinfo_-E3__1__motorbike.2" vType="motorbike" speedFactor="1.00" vaporized=""/>
    <tripinfo id="-E3__0__motorbike.5" depart="46.10" departLane="-E3_1" departPos="2.10" departPosLat="0.00" departSpeed="0.00" departDelay="0.08" arrival="121.40" arrivalLane="E1_1" arrivalPos="176.25" arrivalPosLat="0.00" arrivalSpeed="11.04" duration="75.30" routeLength="364.99" waitingTime="32.50" waitingCount="1" stopTime="0.00" timeLoss="42.26" rerouteNo="0" devices="tripinfo_-E3__0__motorbike.5" vType="motorbike" speedFactor="0.99" vaporized=""/>
    <tripinfo id="-E3__0__motorbike.3" depart="15.70" departLane="-E3_1" departPos="2.10" departPosLat="0.00" departSpeed="0.00" departDelay="0.02" arrival="122.30" arrivalLane="E2_1" arrivalPos="148.30" arrivalPosLat="-0.00" arrivalSpeed="11.04" duration="106.60" routeLength="335.59" waitingTime="61.90" waitingCount="1" stopTime="0.00" timeLoss="76.21" rerouteNo="0" devices="tripinfo_-E3__0__motorbike.3" vType="motorbike" speedFactor="1.12" vaporized=""/>
    <tripinfo id="-E3__0__motorbike.1" depart="7.80" departLane="-E3_2" departPos="2.10" departPosLat="0.00" departSpeed="0.00" departDelay="0.09" arrival="123.00" arrivalLane="E2_2" arrivalPos="148.30" arrivalPosLat="0.00" arrivalSpeed="9.82" duration="115.20" routeLength="335.59" waitingTime="67.60" waitingCount="1" stopTime="0.00" timeLoss="80.66" rerouteNo="0" devices="tripinfo_-E3__0__motorbike.1" vType="motorbike" speedFactor="0.89" vaporized=""/>
    <tripinfo id="-E3__1__car.2" depart="72.50" departLane="-E3_1" departPos="4.60" departPosLat="0.00" departSpeed="0.00" departDelay="0.21" arrival="123.40" arrivalLane="E1_2" arrivalPos="176.25" arrivalPosLat="0.00" arrivalSpeed="11.06" duration="50.90" routeLength="362.49" waitingTime="2.90" waitingCount="1" stopTime="0.00" timeLoss="18.18" rerouteNo="0" devices="tripinfo_-E3__1__car.2" vType="car" speedFactor="1.10" vaporized=""/>
    <tripinfo id="-E3__0__motorbike.2" depart="10.90" departLane="-E3_2" departPos="2.10" departPosLat="0.00" departSpeed="0.00" departDelay="0.08" arrival="123.80" arrivalLane="E1_1" arrivalPos="176.25" arrivalPosLat="0.00" arrivalSpeed="9.49" duration="112.90" routeLength="364.99" waitingTime="65.90" waitingCount="1" stopTime="0.00" timeLoss="74.57" rerouteNo="0" devices="tripinfo_-E3__0__motorbike.2" vType="motorbike" speedFactor="0.86" vaporized=""/>
    <tripinfo id="-E3__0__car.1" depart="17.20" departLane="-E3_2" departPos="4.60" departPosLat="0.00" departSpeed="0.00" departDelay="0.45" arrival="124.90" arrivalLane="E2_2" arrivalPos="148.30" arrivalPosLat="0.00" arrivalSpeed="10.22" duration="107.70" routeLength="333.09" waitingTime="59.30" waitingCount="1" stopTime="0.00" timeLoss="74.91" rerouteNo="0" devices="tripinfo_-E3__0__car.1" vType="car" speedFactor="0.93" vaporized=""/>
    <tripinfo id="-E3__1__motorbike.4" depart="76.50" departLane="-E3_2" departPos="2.10" departPosLat="0.00" departSpeed="0.00" departDelay="0.04" arrival="125.80" arrivalLane="E1_1" arrivalPos="176.25" arrivalPosLat="-0.00" arrivalSpeed="10.75" duration="49.30" routeLength="364.99" waitingTime="0.00" waitingCount="0" stopTime="0.00" timeLoss="15.33" rerouteNo="0" devices="tripinfo_-E3__1__motorbike.4" vType="motorbike" speedFactor="0.97" vaporized=""/>
    <tripinfo id="-E3__0__car.2" depart="23.40" departLane="-E3_2" departPos="4.60" departPosLat="0.00" departSpeed="0.00" departDelay="0.05" arrival="126.30" arrivalLane="E2_2" arrivalPos="148.30" arrivalPosLat="0.00" arrivalSpeed="11.06" duration="102.90" routeLength="333.09" waitingTime="55.70" waitingCount="1" stopTime="0.00" timeLoss="72.84" rerouteNo="0" devices="tripinfo_-E3__0__car.2" vType="car" speedFactor="1.16" vaporized=""/>
    <tripinfo id="-E3__0__motorbike.4" depart="36.00" departLane="-E3_2" departPos="2.10" departPosLat="0.00" departSpeed="0.00" departDelay="0.09" arrival="127.80" arrivalLane="E2_2" arrivalPos="148.30" arrivalPosLat="0.00" arrivalSpeed="10.53" duration="91.80" routeLength="335.59" waitingTime="44.10" waitingCount="1" stopTime="0.00" timeLoss="59.59" rerouteNo="0" devices="tripinfo_-E3__0__motorbike.4" vType="motorbike" speedFactor="0.95" vaporized=""/>
    <tripinfo id="-E3__1__motorbike.3" depart="74.60" departLane="-E3_1" departPos="2.10" departPosLat="0.00" departSpeed="0.00" departDelay="0.93" arrival="127.80" arrivalLane="E1_1" arrivalPos="176.25" arrivalPosLat="0.00" arrivalSpeed="11.05" duration="53.20" routeLength="364.99" waitingTime="1.50" waitingCount="2" stopTime="0.00" timeLoss="20.13" rerouteNo="0" devices="tripinfo_-E3__1__motorbike.3" vType="motorbike" speedFactor="1.00" vaporized=""/>
    <tripinfo id="-E3__0__motorbike.7" depart="56.20" departLane="-E3_1" departPos="2.10" departPosLat="0.00" departSpeed="0.00" departDelay="0.05" arrival="128.30" arrivalLane="E2_1" arrivalPos="148.30" arrivalPosLat="-0.00" arrivalSpeed="11.06" duration="72.10" routeLength="335.59" waitingTime="26.30" waitingCount="1" stopTime="0.00" timeLoss="41.58" rerouteNo="0" devices="tripinfo_-E3__0__motorbike.7" vType="motorbike" speedFactor="1.04" vaporized=""/>
    <tripinfo id="-E3__0__motorbike.6" depart="48.30" departLane="-E3_2" departPos="2.10" departPosLat="0.00" departSpeed="0.00" departDelay="0.07" arrival="129.00" arrivalLane="E2_2" arrivalPos="148.30" arrivalPosLat="0.00" arrivalSpeed="11.06" duration="80.70" routeLength="335.59" waitingTime="33.10" waitingCount="1" stopTime="0.00" timeLoss="50.32" rerouteNo="0" devices="tripinfo_-E3__0__motorbike.6" vType="motorbike" speedFactor="1.10" vaporized=""/>
    <tripinfo id="-E3__1__motorbike.6" depart="80.50" departLane="-E3_2" departPos="2.10" departPosLat="0.00" departSpeed="0.00" departDelay="0.00" arrival="129.00" arrivalLane="E1_1" arrivalPos="176.25" arrivalPosLat="0.00" arrivalSpeed="11.05" duration="48.50" routeLength="364.99" waitingTime="0.00" waitingCount="0" stopTime="0.00" timeLoss="15.59" rerouteNo="0" devices="tripinfo_-E3__1__motorbike.6" vType="motorbike" speedFactor="1.02" vaporized=""/>
    <tripinfo id="-E3__1__motorbike.0" depart="61.60" departLane="-E3_2" departPos="2.10" departPosLat="0.00" departSpeed="0.00" departDelay="0.06" arrival="129.70" arrivalLane="E2_2" arrivalPos="148.30" arrivalPosLat="0.95" arrivalSpeed="11.06" duration="68.10" routeLength="335.59" waitingTime="21.80" waitingCount="1" stopTime="0.00" timeLoss="37.67" rerouteNo="0" devices="tripinfo_-E3__1__motorbike.0" vType="motorbike" speedFactor="1.09" vaporized=""/>
    <tripinfo id="-E3__1__car.0" depart="63.70" departLane="-E3_1" departPos="4.60" departPosLat="0.00" departSpeed="0.00" departDelay="0.23" arrival="133.20" arrivalLane="E2_2" arrivalPos="148.30" arrivalPosLat="0.00" arrivalSpeed="9.69" duration="69.50" routeLength="333.09" waitingTime="19.00" waitingCount="1" stopTime="0.00" timeLoss="34.86" rerouteNo="0" devices="tripinfo_-E3__1__car.0" vType="car" speedFactor="0.88" vaporized=""/>
    <tripinfo id="-E3__1__motorbike.1" depart="63.60" departLane="-E3_2" departPos="2.10" departPosLat="0.00" departSpeed="0.00" departDelay="0.17" arrival="134.70" arrivalLane="E2_2" arrivalPos="148.30" arrivalPosLat="0.00" arrivalSpeed="9.93" duration="71.10" routeLength="335.59" waitingTime="17.60" waitingCount="1" stopTime="0.00" timeLoss="37.11" rerouteNo="0" devices="tripinfo_-E3__1__motorbike.1" vType="motorbike" speedFactor="0.90" vaporized=""/>
    <tripinfo id="-E3__1__car.1" depart="70.20" departLane="-E3_2" departPos="4.60" departPosLat="0.00" departSpeed="0.00" departDelay="0.03" arrival="136.40" arrivalLane="E2_2" arrivalPos="148.30" arrivalPosLat="0.00" arrivalSpeed="11.04" duration="66.20" routeLength="333.09" waitingTime="15.50" waitingCount="1" stopTime="0.00" timeLoss="36.16" rerouteNo="0" devices="tripinfo_-E3__1__car.1" vType="car" speedFactor="1.17" vaporized=""/>
    <tripinfo id="-E3__1__car.3" depart="97.90" departLane="-E3_1" departPos="4.60" departPosLat="0.00" departSpeed="0.00" departDelay="0.05" arrival="137.20" arrivalLane="E1_1" arrivalPos="176.25" arrivalPosLat="0.00" arrivalSpeed="10.37" duration="39.30" routeLength="362.49" waitingTime="0.00" waitingCount="0" stopTime="0.00" timeLoss="4.59" rerouteNo="0" devices="tripinfo_-E3__1__car.3" vType="car" speedFactor="0.94" vaporized=""/>
    <tripinfo id="-E3__1__motorbike.5" depart="76.80" departLane="-E3_1" departPos="2.10" departPosLat="0.00" departSpeed="0.00" departDelay="0.07" arrival="137.80" arrivalLane="E2_2" arrivalPos="148.30" arrivalPosLat="0.00" arrivalSpeed="11.08" duration="61.00" routeLength="335.59" waitingTime="9.90" waitingCount="1" stopTime="0.00" timeLoss="30.59" rerouteNo="0" devices="tripinfo_-E3__1__motorbike.5" vType="motorbike" speedFactor="1.08" vaporized=""/>
    <tripinfo id="E0__0__car.3" depart="43.20" departLane="E0_2" departPos="4.60" departPosLat="0.00" departSpeed="0.00" departDelay="0.01" arrival="152.00" arrivalLane="E2_1" arrivalPos="148.30" arrivalPosLat="-0.00" arrivalSpeed="11.08" duration="108.80" routeLength="320.60" waitingTime="69.30" waitingCount="1" stopTime="0.00" timeLoss="79.95" rerouteNo="0" devices="tripinfo_E0__0__car.3" vType="car" speedFactor="1.01" vaporized=""/>
    <tripinfo id="E0__0__car.1" depart="25.30" departLane="E0_2" departPos="4.60" departPosLat="0.00" departSpeed="0.00" departDelay="0.08" arrival="153.80" arrivalLane="E3_2" arrivalPos="170.01" arrivalPosLat="0.00" arrivalSpeed="11.07" duration="128.50" routeLength="340.87" waitingTime="86.90" waitingCount="1" stopTime="0.00" timeLoss="97.49" rerouteNo="0" devices="tripinfo_E0__0__car.1" vType="car" speedFactor="1.02" vaporized=""/>
    <tripinfo id="E0__0__motorbike.5" depart="53.50" departLane="E0_2" departPos="2.10" departPosLat="0.00" departSpeed="0.00" departDelay="0.05" arrival="155.20" arrivalLane="E1_1" arrivalPos="176.25" arrivalPosLat="0.00" arrivalSpeed="10.58" duration="101.70" routeLength="339.26" waitingTime="56.20" waitingCount="1" stopTime="0.00" timeLoss="69.14" rerouteNo="0" devices="tripinfo_E0__0__motorbike.5" vType="motorbike" speedFactor="0.96" vaporized=""/>
    <tripinfo id="E0__1__car.0" depart="83.20" departLane="E0_2" departPos="4.60" departPosLat="0.00" departSpeed="0.00" departDelay="0.04" arrival="155.80" arrivalLane="E2_1" arrivalPos="148.30" arrivalPosLat="0.00" arrivalSpeed="10.90" duration="72.60" routeLength="320.60" waitingTime="20.60" waitingCount="2" stopTime="0.00" timeLoss="43.34" rerouteNo="0" devices="tripinfo_E0__1__car.0" vType="car" speedFactor="0.99" vaporized=""/>
    <tripinfo id="E0__1__motorbike.2" depart="87.50" departLane="E0_2" departPos="2.10" departPosLat="0.00" departSpeed="0.00" departDelay="0.15" arrival="156.80" arrivalLane="E1_2" arrivalPos="176.25" arrivalPosLat="0.00" arrivalSpeed="10.13" duration="69.30" routeLength="339.26" waitingTime="22.60" waitingCount="1" stopTime="0.00" timeLoss="35.31" rerouteNo="0" devices="tripinfo_E0__1__motorbike.2" vType="motorbike" speedFactor="0.91" vaporized=""/>
    <tripinfo id="E0__0__car.2" depart="28.30" departLane="E0_2" departPos="4.60" departPosLat="0.00" departSpeed="0.00" departDelay="0.01" arrival="158.10" arrivalLane="E3_1" arrivalPos="170.01" arrivalPosLat="0.65" arrivalSpeed="9.11" duration="129.80" routeLength="340.87" waitingTime="80.00" waitingCount="1" stopTime="0.00" timeLoss="92.17" rerouteNo="0" devices="tripinfo_E0__0__car.2" vType="car" speedFactor="0.83" vaporized=""/>
    <tripinfo id="E0__0__motorbike.2" depart="33.70" departLane="E0_2" departPos="2.10" departPosLat="0.00" departSpeed="0.00" departDelay="0.04" arrival="159.40" arrivalLane="E3_2" arrivalPos="170.01" arrivalPosLat="0.00" arrivalSpeed="10.16" duration="125.70" routeLength="343.37" waitingTime="76.70" waitingCount="1" stopTime="0.00" timeLoss="91.62" rerouteNo="0" devices="tripinfo_E0__0__motorbike.2" vType="motorbike" speedFactor="0.92" vaporized=""/>
    <tripinfo id="E0__0__motorbike.3" depart="46.10" departLane="E0_1" departPos="2.10" departPosLat="0.00" departSpeed="0.00" departDelay="0.08" arrival="160.60" arrivalLane="E3_2" arrivalPos="170.01" arrivalPosLat="0.00" arrivalSpeed="11.09" duration="114.50" routeLength="343.37" waitingTime="65.60" waitingCount="1" stopTime="0.00" timeLoss="83.25" rerouteNo="0" devices="tripinfo_E0__0__motorbike.3" vType="motorbike" speedFactor="1.02" vaporized=""/>
    <tripinfo id="E0__0__car.4" depart="48.20" departLane="E0_2" departPos="4.60" departPosLat="0.00" departSpeed="0.00" departDelay="0.06" arrival="162.30" arrivalLane="E3_2" arrivalPos="170.01" arrivalPosLat="0.00" arrivalSpeed="11.08" duration="114.10" routeLength="340.87" waitingTime="63.30" waitingCount="1" stopTime="0.00" timeLoss="83.38" rerouteNo="0" devices="tripinfo_E0__0__car.4" vType="car" speedFactor="1.18" vaporized=""/>
    <tripinfo id="E0__0__motorbike.4" depart="51.60" departLane="E0_1" departPos="2.10" departPosLat="0.00" departSpeed="0.00" departDelay="0.08" arrival="164.00" arrivalLane="E3_2" arrivalPos="170.01" arrivalPosLat="-0.10" arrivalSpeed="9.96" duration="112.40" routeLength="343.37" waitingTime="61.30" waitingCount="1" stopTime="0.00" timeLoss="77.63" rerouteNo="0" devices="tripinfo_E0__0__motorbike.4" vType="motorbike" speedFactor="0.90" vaporized=""/>
    <tripinfo id="E0__1__motorbike.1" depart="74.10" departLane="E0_1" departPos="2.10" departPosLat="0.00" departSpeed="0.00" departDelay="0.09" arrival="164.10" arrivalLane="E3_1" arrivalPos="170.01" arrivalPosLat="-0.00" arrivalSpeed="9.92" duration="90.00" routeLength="343.37" waitingTime="40.60" waitingCount="1" stopTime="0.00" timeLoss="55.16" rerouteNo="0" devices="tripinfo_E0__1__motorbike.1" vType="motorbike" speedFactor="0.90" vaporized=""/>
    <tripinfo id="E0__1__motorbike.0" depart="61.80" departLane="E0_1" departPos="2.10" departPosLat="0.00" departSpeed="0.00" departDelay="0.08" arrival="165.20" arrivalLane="E3_2" arrivalPos="170.01" arrivalPosLat="-0.11" arrivalSpeed="11.08" duration="103.40" routeLength="343.37" waitingTime="52.90" waitingCount="1" stopTime="0.00" timeLoss="71.98" rerouteNo="0" devices="tripinfo_E0__1__motorbike.0" vType="motorbike" speedFactor="1.00" vaporized=""/>
    <tripinfo id="E0__1__car.1" depart="85.90" departLane="E0_1" departPos="4.60" departPosLat="0.00" departSpeed="0.00" departDelay="0.04" arrival="167.00" arrivalLane="E3_2" arrivalPos="170.01" arrivalPosLat="0.00" arrivalSpeed="10.35" duration="81.10" routeLength="340.87" waitingTime="25.10" waitingCount="1" stopTime="0.00" timeLoss="47.97" rerouteNo="0" devices="tripinfo_E0__1__car.1" vType="car" speedFactor="0.94" vaporized=""/>
    <tripinfo id="E0__1__car.2" depart="95.70" departLane="E0_1" departPos="4.60" departPosLat="0.00" departSpeed="0.00" departDelay="0.00" arrival="168.50" arrivalLane="E3_2" arrivalPos="170.01" arrivalPosLat="0.00" arrivalSpeed="10.80" duration="72.80" routeLength="340.87" waitingTime="21.70" waitingCount="1" stopTime="0.00" timeLoss="40.83" rerouteNo="0" devices="tripinfo_E0__1__car.2" vType="car" speedFactor="0.97" vaporized=""/>
    <tripinfo id="E0__1__motorbike.3" depart="105.00" departLane="E0_1" departPos="2.10" departPosLat="0.00" departSpeed="0.00" departDelay="0.02" arrival="169.90" arrivalLane="E3_2" arrivalPos="170.01" arrivalPosLat="-0.45" arrivalSpeed="11.04" duration="64.90" routeLength="343.37" waitingTime="14.00" waitingCount="1" stopTime="0.00" timeLoss="33.64" rerouteNo="0" devices="tripinfo_E0__1__motorbike.3" vType="motorbike" speedFactor="1.03" vaporized=""/>
    <tripinfo id="E0__1__motorbike.4" depart="108.00" departLane="E0_2" departPos="2.10" departPosLat="0.00" departSpeed="0.00" departDelay="0.08" arrival="169.90" arrivalLane="E3_2" arrivalPos="170.01" arrivalPosLat="1.05" arrivalSpeed="11.04" duration="61.90" routeLength="343.37" waitingTime="11.60" waitingCount="1" stopTime="0.00" timeLoss="30.59" rerouteNo="0" devices="tripinfo_E0__1__motorbike.4" vType="motorbike" speedFactor="1.01" vaporized=""/>